+ 0.1 0 2 tcp 40 ------- 1 0.0 3.0 0 0
- 0.1 0 2 tcp 40 ------- 1 0.0 3.0 0 0
+ 0.1 1 2 cbr 210 ------- 2 1.0 3.1 0 1
- 0.1 1 2 cbr 210 ------- 2 1.0 3.1 0 1
+ 0.10375 1 2 cbr 210 ------- 2 1.0 3.1 1 2
- 0.10375 1 2 cbr 210 ------- 2 1.0 3.1 1 2
r 0.105213 0 2 tcp 40 ------- 1 0.0 3.0 0 0
+ 0.105213 2 3 tcp 40 ------- 1 0.0 3.0 0 0
- 0.105213 2 3 tcp 40 ------- 1 0.0 3.0 0 0
r 0.10612 1 2 cbr 210 ------- 2 1.0 3.1 0 1
+ 0.10612 2 3 cbr 210 ------- 2 1.0 3.1 0 1
- 0.10612 2 3 cbr 210 ------- 2 1.0 3.1 0 1
+ 0.1075 1 2 cbr 210 ------- 2 1.0 3.1 2 3
- 0.1075 1 2 cbr 210 ------- 2 1.0 3.1 2 3
r 0.10987 1 2 cbr 210 ------- 2 1.0 3.1 1 2
+ 0.10987 2 3 cbr 210 ------- 2 1.0 3.1 1 2
- 0.10987 2 3 cbr 210 ------- 2 1.0 3.1 1 2
r 0.110427 2 3 tcp 40 ------- 1 0.0 3.0 0 0
+ 0.110427 3 2 ack 40 ------- 1 3.0 0.0 0 4
- 0.110427 3 2 ack 40 ------- 1 3.0 0.0 0 4
+ 0.11125 1 2 cbr 210 ------- 2 1.0 3.1 3 5
- 0.11125 1 2 cbr 210 ------- 2 1.0 3.1 3 5
r 0.11224 2 3 cbr 210 ------- 2 1.0 3.1 0 1
r 0.11362 1 2 cbr 210 ------- 2 1.0 3.1 2 3
+ 0.11362 2 3 cbr 210 ------- 2 1.0 3.1 2 3
- 0.11362 2 3 cbr 210 ------- 2 1.0 3.1 2 3
+ 0.115 1 2 cbr 210 ------- 2 1.0 3.1 4 6
- 0.115 1 2 cbr 210 ------- 2 1.0 3.1 4 6
r 0.11564 3 2 ack 40 ------- 1 3.0 0.0 0 4
+ 0.11564 2 0 ack 40 ------- 1 3.0 0.0 0 4
- 0.11564 2 0 ack 40 ------- 1 3.0 0.0 0 4
r 0.11599 2 3 cbr 210 ------- 2 1.0 3.1 1 2
r 0.11737 1 2 cbr 210 ------- 2 1.0 3.1 3 5
+ 0.11737 2 3 cbr 210 ------- 2 1.0 3.1 3 5
- 0.11737 2 3 cbr 210 ------- 2 1.0 3.1 3 5
+ 0.11875 1 2 cbr 210 ------- 2 1.0 3.1 5 7
- 0.11875 1 2 cbr 210 ------- 2 1.0 3.1 5 7
r 0.11974 2 3 cbr 210 ------- 2 1.0 3.1 2 3
r 0.120853 2 0 ack 40 ------- 1 3.0 0.0 0 4
+ 0.120853 0 2 tcp 1040 ------- 1 0.0 3.0 1 8
- 0.120853 0 2 tcp 1040 ------- 1 0.0 3.0 1 8
+ 0.120853 0 2 tcp 1040 ------- 1 0.0 3.0 2 9
r 0.12112 1 2 cbr 210 ------- 2 1.0 3.1 4 6
+ 0.12112 2 3 cbr 210 ------- 2 1.0 3.1 4 6
- 0.12112 2 3 cbr 210 ------- 2 1.0 3.1 4 6
+ 0.1225 1 2 cbr 210 ------- 2 1.0 3.1 6 10
- 0.1225 1 2 cbr 210 ------- 2 1.0 3.1 6 10
r 0.12349 2 3 cbr 210 ------- 2 1.0 3.1 3 5
r 0.12487 1 2 cbr 210 ------- 2 1.0 3.1 5 7
+ 0.12487 2 3 cbr 210 ------- 2 1.0 3.1 5 7
- 0.12487 2 3 cbr 210 ------- 2 1.0 3.1 5 7
+ 0.12625 1 2 cbr 210 ------- 2 1.0 3.1 7 11
- 0.12625 1 2 cbr 210 ------- 2 1.0 3.1 7 11
- 0.1264 0 2 tcp 1040 ------- 1 0.0 3.0 2 9
r 0.12724 2 3 cbr 210 ------- 2 1.0 3.1 4 6
r 0.12862 1 2 cbr 210 ------- 2 1.0 3.1 6 10
+ 0.12862 2 3 cbr 210 ------- 2 1.0 3.1 6 10
- 0.12862 2 3 cbr 210 ------- 2 1.0 3.1 6 10
+ 0.13 1 2 cbr 210 ------- 2 1.0 3.1 8 12
- 0.13 1 2 cbr 210 ------- 2 1.0 3.1 8 12
r 0.13099 2 3 cbr 210 ------- 2 1.0 3.1 5 7
r 0.1314 0 2 tcp 1040 ------- 1 0.0 3.0 1 8
+ 0.1314 2 3 tcp 1040 ------- 1 0.0 3.0 1 8
- 0.1314 2 3 tcp 1040 ------- 1 0.0 3.0 1 8
r 0.13237 1 2 cbr 210 ------- 2 1.0 3.1 7 11
+ 0.13237 2 3 cbr 210 ------- 2 1.0 3.1 7 11
+ 0.13375 1 2 cbr 210 ------- 2 1.0 3.1 9 13
- 0.13375 1 2 cbr 210 ------- 2 1.0 3.1 9 13
r 0.13474 2 3 cbr 210 ------- 2 1.0 3.1 6 10
r 0.13612 1 2 cbr 210 ------- 2 1.0 3.1 8 12
+ 0.13612 2 3 cbr 210 ------- 2 1.0 3.1 8 12
r 0.136947 0 2 tcp 1040 ------- 1 0.0 3.0 2 9
+ 0.136947 2 3 tcp 1040 ------- 1 0.0 3.0 2 9
- 0.136947 2 3 cbr 210 ------- 2 1.0 3.1 7 11
+ 0.1375 1 2 cbr 210 ------- 2 1.0 3.1 10 14
- 0.1375 1 2 cbr 210 ------- 2 1.0 3.1 10 14
- 0.138067 2 3 cbr 210 ------- 2 1.0 3.1 8 12
- 0.139187 2 3 tcp 1040 ------- 1 0.0 3.0 2 9
r 0.13987 1 2 cbr 210 ------- 2 1.0 3.1 9 13
+ 0.13987 2 3 cbr 210 ------- 2 1.0 3.1 9 13
+ 0.14125 1 2 cbr 210 ------- 2 1.0 3.1 11 15
- 0.14125 1 2 cbr 210 ------- 2 1.0 3.1 11 15
r 0.141947 2 3 tcp 1040 ------- 1 0.0 3.0 1 8
+ 0.141947 3 2 ack 40 ------- 1 3.0 0.0 1 16
- 0.141947 3 2 ack 40 ------- 1 3.0 0.0 1 16
r 0.143067 2 3 cbr 210 ------- 2 1.0 3.1 7 11
r 0.14362 1 2 cbr 210 ------- 2 1.0 3.1 10 14
+ 0.14362 2 3 cbr 210 ------- 2 1.0 3.1 10 14
r 0.144187 2 3 cbr 210 ------- 2 1.0 3.1 8 12
- 0.144733 2 3 cbr 210 ------- 2 1.0 3.1 9 13
+ 0.145 1 2 cbr 210 ------- 2 1.0 3.1 12 17
- 0.145 1 2 cbr 210 ------- 2 1.0 3.1 12 17
- 0.145853 2 3 cbr 210 ------- 2 1.0 3.1 10 14
r 0.14716 3 2 ack 40 ------- 1 3.0 0.0 1 16
+ 0.14716 2 0 ack 40 ------- 1 3.0 0.0 1 16
- 0.14716 2 0 ack 40 ------- 1 3.0 0.0 1 16
r 0.14737 1 2 cbr 210 ------- 2 1.0 3.1 11 15
+ 0.14737 2 3 cbr 210 ------- 2 1.0 3.1 11 15
- 0.14737 2 3 cbr 210 ------- 2 1.0 3.1 11 15
+ 0.14875 1 2 cbr 210 ------- 2 1.0 3.1 13 18
- 0.14875 1 2 cbr 210 ------- 2 1.0 3.1 13 18
r 0.149733 2 3 tcp 1040 ------- 1 0.0 3.0 2 9
+ 0.149733 3 2 ack 40 ------- 1 3.0 0.0 2 19
- 0.149733 3 2 ack 40 ------- 1 3.0 0.0 2 19
r 0.150853 2 3 cbr 210 ------- 2 1.0 3.1 9 13
r 0.15112 1 2 cbr 210 ------- 2 1.0 3.1 12 17
+ 0.15112 2 3 cbr 210 ------- 2 1.0 3.1 12 17
- 0.15112 2 3 cbr 210 ------- 2 1.0 3.1 12 17
r 0.151973 2 3 cbr 210 ------- 2 1.0 3.1 10 14
r 0.152373 2 0 ack 40 ------- 1 3.0 0.0 1 16
+ 0.152373 0 2 tcp 1040 ------- 1 0.0 3.0 3 20
- 0.152373 0 2 tcp 1040 ------- 1 0.0 3.0 3 20
+ 0.152373 0 2 tcp 1040 ------- 1 0.0 3.0 4 21
+ 0.1525 1 2 cbr 210 ------- 2 1.0 3.1 14 22
- 0.1525 1 2 cbr 210 ------- 2 1.0 3.1 14 22
r 0.15349 2 3 cbr 210 ------- 2 1.0 3.1 11 15
r 0.15487 1 2 cbr 210 ------- 2 1.0 3.1 13 18
+ 0.15487 2 3 cbr 210 ------- 2 1.0 3.1 13 18
- 0.15487 2 3 cbr 210 ------- 2 1.0 3.1 13 18
r 0.154947 3 2 ack 40 ------- 1 3.0 0.0 2 19
+ 0.154947 2 0 ack 40 ------- 1 3.0 0.0 2 19
- 0.154947 2 0 ack 40 ------- 1 3.0 0.0 2 19
+ 0.15625 1 2 cbr 210 ------- 2 1.0 3.1 15 23
- 0.15625 1 2 cbr 210 ------- 2 1.0 3.1 15 23
r 0.15724 2 3 cbr 210 ------- 2 1.0 3.1 12 17
- 0.15792 0 2 tcp 1040 ------- 1 0.0 3.0 4 21
r 0.15862 1 2 cbr 210 ------- 2 1.0 3.1 14 22
+ 0.15862 2 3 cbr 210 ------- 2 1.0 3.1 14 22
- 0.15862 2 3 cbr 210 ------- 2 1.0 3.1 14 22
+ 0.16 1 2 cbr 210 ------- 2 1.0 3.1 16 24
- 0.16 1 2 cbr 210 ------- 2 1.0 3.1 16 24
r 0.16016 2 0 ack 40 ------- 1 3.0 0.0 2 19
+ 0.16016 0 2 tcp 1040 ------- 1 0.0 3.0 5 25
+ 0.16016 0 2 tcp 1040 ------- 1 0.0 3.0 6 26
r 0.16099 2 3 cbr 210 ------- 2 1.0 3.1 13 18
r 0.16237 1 2 cbr 210 ------- 2 1.0 3.1 15 23
+ 0.16237 2 3 cbr 210 ------- 2 1.0 3.1 15 23
- 0.16237 2 3 cbr 210 ------- 2 1.0 3.1 15 23
r 0.16292 0 2 tcp 1040 ------- 1 0.0 3.0 3 20
+ 0.16292 2 3 tcp 1040 ------- 1 0.0 3.0 3 20
- 0.163467 0 2 tcp 1040 ------- 1 0.0 3.0 5 25
- 0.16349 2 3 tcp 1040 ------- 1 0.0 3.0 3 20
+ 0.16375 1 2 cbr 210 ------- 2 1.0 3.1 17 27
- 0.16375 1 2 cbr 210 ------- 2 1.0 3.1 17 27
r 0.16474 2 3 cbr 210 ------- 2 1.0 3.1 14 22
r 0.16612 1 2 cbr 210 ------- 2 1.0 3.1 16 24
+ 0.16612 2 3 cbr 210 ------- 2 1.0 3.1 16 24
+ 0.1675 1 2 cbr 210 ------- 2 1.0 3.1 18 28
- 0.1675 1 2 cbr 210 ------- 2 1.0 3.1 18 28
r 0.168467 0 2 tcp 1040 ------- 1 0.0 3.0 4 21
+ 0.168467 2 3 tcp 1040 ------- 1 0.0 3.0 4 21
r 0.16849 2 3 cbr 210 ------- 2 1.0 3.1 15 23
- 0.169013 0 2 tcp 1040 ------- 1 0.0 3.0 6 26
- 0.169037 2 3 cbr 210 ------- 2 1.0 3.1 16 24
r 0.16987 1 2 cbr 210 ------- 2 1.0 3.1 17 27
+ 0.16987 2 3 cbr 210 ------- 2 1.0 3.1 17 27
- 0.170157 2 3 tcp 1040 ------- 1 0.0 3.0 4 21
+ 0.17125 1 2 cbr 210 ------- 2 1.0 3.1 19 29
- 0.17125 1 2 cbr 210 ------- 2 1.0 3.1 19 29
r 0.17362 1 2 cbr 210 ------- 2 1.0 3.1 18 28
+ 0.17362 2 3 cbr 210 ------- 2 1.0 3.1 18 28
r 0.174013 0 2 tcp 1040 ------- 1 0.0 3.0 5 25
+ 0.174013 2 3 tcp 1040 ------- 1 0.0 3.0 5 25
r 0.174037 2 3 tcp 1040 ------- 1 0.0 3.0 3 20
+ 0.174037 3 2 ack 40 ------- 1 3.0 0.0 3 30
- 0.174037 3 2 ack 40 ------- 1 3.0 0.0 3 30
+ 0.175 1 2 cbr 210 ------- 2 1.0 3.1 20 31
- 0.175 1 2 cbr 210 ------- 2 1.0 3.1 20 31
r 0.175157 2 3 cbr 210 ------- 2 1.0 3.1 16 24
- 0.175703 2 3 cbr 210 ------- 2 1.0 3.1 17 27
- 0.176823 2 3 cbr 210 ------- 2 1.0 3.1 18 28
r 0.17737 1 2 cbr 210 ------- 2 1.0 3.1 19 29
+ 0.17737 2 3 cbr 210 ------- 2 1.0 3.1 19 29
- 0.177943 2 3 tcp 1040 ------- 1 0.0 3.0 5 25
+ 0.17875 1 2 cbr 210 ------- 2 1.0 3.1 21 32
- 0.17875 1 2 cbr 210 ------- 2 1.0 3.1 21 32
r 0.17925 3 2 ack 40 ------- 1 3.0 0.0 3 30
+ 0.17925 2 0 ack 40 ------- 1 3.0 0.0 3 30
- 0.17925 2 0 ack 40 ------- 1 3.0 0.0 3 30
r 0.17956 0 2 tcp 1040 ------- 1 0.0 3.0 6 26
+ 0.17956 2 3 tcp 1040 ------- 1 0.0 3.0 6 26
r 0.180703 2 3 tcp 1040 ------- 1 0.0 3.0 4 21
+ 0.180703 3 2 ack 40 ------- 1 3.0 0.0 4 33
- 0.180703 3 2 ack 40 ------- 1 3.0 0.0 4 33
r 0.18112 1 2 cbr 210 ------- 2 1.0 3.1 20 31
+ 0.18112 2 3 cbr 210 ------- 2 1.0 3.1 20 31
r 0.181823 2 3 cbr 210 ------- 2 1.0 3.1 17 27
+ 0.1825 1 2 cbr 210 ------- 2 1.0 3.1 22 34
- 0.1825 1 2 cbr 210 ------- 2 1.0 3.1 22 34
r 0.182943 2 3 cbr 210 ------- 2 1.0 3.1 18 28
- 0.18349 2 3 cbr 210 ------- 2 1.0 3.1 19 29
r 0.184463 2 0 ack 40 ------- 1 3.0 0.0 3 30
+ 0.184463 0 2 tcp 1040 ------- 1 0.0 3.0 7 35
- 0.184463 0 2 tcp 1040 ------- 1 0.0 3.0 7 35
+ 0.184463 0 2 tcp 1040 ------- 1 0.0 3.0 8 36
- 0.18461 2 3 tcp 1040 ------- 1 0.0 3.0 6 26
r 0.18487 1 2 cbr 210 ------- 2 1.0 3.1 21 32
+ 0.18487 2 3 cbr 210 ------- 2 1.0 3.1 21 32
r 0.185917 3 2 ack 40 ------- 1 3.0 0.0 4 33
+ 0.185917 2 0 ack 40 ------- 1 3.0 0.0 4 33
- 0.185917 2 0 ack 40 ------- 1 3.0 0.0 4 33
+ 0.18625 1 2 cbr 210 ------- 2 1.0 3.1 23 37
- 0.18625 1 2 cbr 210 ------- 2 1.0 3.1 23 37
r 0.18849 2 3 tcp 1040 ------- 1 0.0 3.0 5 25
+ 0.18849 3 2 ack 40 ------- 1 3.0 0.0 5 38
- 0.18849 3 2 ack 40 ------- 1 3.0 0.0 5 38
r 0.18862 1 2 cbr 210 ------- 2 1.0 3.1 22 34
+ 0.18862 2 3 cbr 210 ------- 2 1.0 3.1 22 34
r 0.18961 2 3 cbr 210 ------- 2 1.0 3.1 19 29
+ 0.19 1 2 cbr 210 ------- 2 1.0 3.1 24 39
- 0.19 1 2 cbr 210 ------- 2 1.0 3.1 24 39
- 0.19001 0 2 tcp 1040 ------- 1 0.0 3.0 8 36
- 0.190157 2 3 cbr 210 ------- 2 1.0 3.1 20 31
r 0.19113 2 0 ack 40 ------- 1 3.0 0.0 4 33
+ 0.19113 0 2 tcp 1040 ------- 1 0.0 3.0 9 40
+ 0.19113 0 2 tcp 1040 ------- 1 0.0 3.0 10 41
- 0.191277 2 3 cbr 210 ------- 2 1.0 3.1 21 32
r 0.19237 1 2 cbr 210 ------- 2 1.0 3.1 23 37
+ 0.19237 2 3 cbr 210 ------- 2 1.0 3.1 23 37
- 0.192397 2 3 cbr 210 ------- 2 1.0 3.1 22 34
- 0.193517 2 3 cbr 210 ------- 2 1.0 3.1 23 37
r 0.193703 3 2 ack 40 ------- 1 3.0 0.0 5 38
+ 0.193703 2 0 ack 40 ------- 1 3.0 0.0 5 38
- 0.193703 2 0 ack 40 ------- 1 3.0 0.0 5 38
+ 0.19375 1 2 cbr 210 ------- 2 1.0 3.1 25 42
- 0.19375 1 2 cbr 210 ------- 2 1.0 3.1 25 42
r 0.19501 0 2 tcp 1040 ------- 1 0.0 3.0 7 35
+ 0.19501 2 3 tcp 1040 ------- 1 0.0 3.0 7 35
- 0.19501 2 3 tcp 1040 ------- 1 0.0 3.0 7 35
r 0.195157 2 3 tcp 1040 ------- 1 0.0 3.0 6 26
+ 0.195157 3 2 ack 40 ------- 1 3.0 0.0 6 43
- 0.195157 3 2 ack 40 ------- 1 3.0 0.0 6 43
- 0.195557 0 2 tcp 1040 ------- 1 0.0 3.0 9 40
r 0.19612 1 2 cbr 210 ------- 2 1.0 3.1 24 39
+ 0.19612 2 3 cbr 210 ------- 2 1.0 3.1 24 39
r 0.196277 2 3 cbr 210 ------- 2 1.0 3.1 20 31
r 0.197397 2 3 cbr 210 ------- 2 1.0 3.1 21 32
+ 0.1975 1 2 cbr 210 ------- 2 1.0 3.1 26 44
- 0.1975 1 2 cbr 210 ------- 2 1.0 3.1 26 44
r 0.198517 2 3 cbr 210 ------- 2 1.0 3.1 22 34
r 0.198917 2 0 ack 40 ------- 1 3.0 0.0 5 38
+ 0.198917 0 2 tcp 1040 ------- 1 0.0 3.0 11 45
+ 0.198917 0 2 tcp 1040 ------- 1 0.0 3.0 12 46
r 0.199637 2 3 cbr 210 ------- 2 1.0 3.1 23 37
r 0.19987 1 2 cbr 210 ------- 2 1.0 3.1 25 42
+ 0.19987 2 3 cbr 210 ------- 2 1.0 3.1 25 42
r 0.20037 3 2 ack 40 ------- 1 3.0 0.0 6 43
+ 0.20037 2 0 ack 40 ------- 1 3.0 0.0 6 43
- 0.20037 2 0 ack 40 ------- 1 3.0 0.0 6 43
r 0.200557 0 2 tcp 1040 ------- 1 0.0 3.0 8 36
+ 0.200557 2 3 tcp 1040 ------- 1 0.0 3.0 8 36
- 0.200557 2 3 cbr 210 ------- 2 1.0 3.1 24 39
- 0.201103 0 2 tcp 1040 ------- 1 0.0 3.0 10 41
+ 0.20125 1 2 cbr 210 ------- 2 1.0 3.1 27 47
- 0.20125 1 2 cbr 210 ------- 2 1.0 3.1 27 47
- 0.201677 2 3 cbr 210 ------- 2 1.0 3.1 25 42
- 0.202797 2 3 tcp 1040 ------- 1 0.0 3.0 8 36
r 0.20362 1 2 cbr 210 ------- 2 1.0 3.1 26 44
+ 0.20362 2 3 cbr 210 ------- 2 1.0 3.1 26 44
+ 0.205 1 2 cbr 210 ------- 2 1.0 3.1 28 48
- 0.205 1 2 cbr 210 ------- 2 1.0 3.1 28 48
r 0.205557 2 3 tcp 1040 ------- 1 0.0 3.0 7 35
+ 0.205557 3 2 ack 40 ------- 1 3.0 0.0 7 49
- 0.205557 3 2 ack 40 ------- 1 3.0 0.0 7 49
r 0.205583 2 0 ack 40 ------- 1 3.0 0.0 6 43
+ 0.205583 0 2 tcp 1040 ------- 1 0.0 3.0 13 50
+ 0.205583 0 2 tcp 1040 ------- 1 0.0 3.0 14 51
r 0.206103 0 2 tcp 1040 ------- 1 0.0 3.0 9 40
+ 0.206103 2 3 tcp 1040 ------- 1 0.0 3.0 9 40
- 0.20665 0 2 tcp 1040 ------- 1 0.0 3.0 11 45
r 0.206677 2 3 cbr 210 ------- 2 1.0 3.1 24 39
r 0.20737 1 2 cbr 210 ------- 2 1.0 3.1 27 47
+ 0.20737 2 3 cbr 210 ------- 2 1.0 3.1 27 47
r 0.207797 2 3 cbr 210 ------- 2 1.0 3.1 25 42
- 0.208343 2 3 cbr 210 ------- 2 1.0 3.1 26 44
+ 0.20875 1 2 cbr 210 ------- 2 1.0 3.1 29 52
- 0.20875 1 2 cbr 210 ------- 2 1.0 3.1 29 52
- 0.209463 2 3 tcp 1040 ------- 1 0.0 3.0 9 40
r 0.21077 3 2 ack 40 ------- 1 3.0 0.0 7 49
+ 0.21077 2 0 ack 40 ------- 1 3.0 0.0 7 49
- 0.21077 2 0 ack 40 ------- 1 3.0 0.0 7 49
r 0.21112 1 2 cbr 210 ------- 2 1.0 3.1 28 48
+ 0.21112 2 3 cbr 210 ------- 2 1.0 3.1 28 48
r 0.21165 0 2 tcp 1040 ------- 1 0.0 3.0 10 41
+ 0.21165 2 3 tcp 1040 ------- 1 0.0 3.0 10 41
- 0.212197 0 2 tcp 1040 ------- 1 0.0 3.0 12 46
+ 0.2125 1 2 cbr 210 ------- 2 1.0 3.1 30 53
- 0.2125 1 2 cbr 210 ------- 2 1.0 3.1 30 53
r 0.213343 2 3 tcp 1040 ------- 1 0.0 3.0 8 36
+ 0.213343 3 2 ack 40 ------- 1 3.0 0.0 8 54
- 0.213343 3 2 ack 40 ------- 1 3.0 0.0 8 54
r 0.214463 2 3 cbr 210 ------- 2 1.0 3.1 26 44
r 0.21487 1 2 cbr 210 ------- 2 1.0 3.1 29 52
+ 0.21487 2 3 cbr 210 ------- 2 1.0 3.1 29 52
- 0.21501 2 3 cbr 210 ------- 2 1.0 3.1 27 47
r 0.215983 2 0 ack 40 ------- 1 3.0 0.0 7 49
+ 0.215983 0 2 tcp 1040 ------- 1 0.0 3.0 15 55
+ 0.215983 0 2 tcp 1040 ------- 1 0.0 3.0 16 56
- 0.21613 2 3 cbr 210 ------- 2 1.0 3.1 28 48
+ 0.21625 1 2 cbr 210 ------- 2 1.0 3.1 31 57
- 0.21625 1 2 cbr 210 ------- 2 1.0 3.1 31 57
r 0.217197 0 2 tcp 1040 ------- 1 0.0 3.0 11 45
+ 0.217197 2 3 tcp 1040 ------- 1 0.0 3.0 11 45
- 0.21725 2 3 tcp 1040 ------- 1 0.0 3.0 10 41
- 0.217743 0 2 tcp 1040 ------- 1 0.0 3.0 13 50
r 0.218557 3 2 ack 40 ------- 1 3.0 0.0 8 54
+ 0.218557 2 0 ack 40 ------- 1 3.0 0.0 8 54
- 0.218557 2 0 ack 40 ------- 1 3.0 0.0 8 54
r 0.21862 1 2 cbr 210 ------- 2 1.0 3.1 30 53
+ 0.21862 2 3 cbr 210 ------- 2 1.0 3.1 30 53
+ 0.22 1 2 cbr 210 ------- 2 1.0 3.1 32 58
- 0.22 1 2 cbr 210 ------- 2 1.0 3.1 32 58
r 0.22001 2 3 tcp 1040 ------- 1 0.0 3.0 9 40
+ 0.22001 3 2 ack 40 ------- 1 3.0 0.0 9 59
- 0.22001 3 2 ack 40 ------- 1 3.0 0.0 9 59
r 0.22113 2 3 cbr 210 ------- 2 1.0 3.1 27 47
r 0.22225 2 3 cbr 210 ------- 2 1.0 3.1 28 48
r 0.22237 1 2 cbr 210 ------- 2 1.0 3.1 31 57
+ 0.22237 2 3 cbr 210 ------- 2 1.0 3.1 31 57
r 0.222743 0 2 tcp 1040 ------- 1 0.0 3.0 12 46
+ 0.222743 2 3 tcp 1040 ------- 1 0.0 3.0 12 46
d 0.222743 2 3 tcp 1040 ------- 1 0.0 3.0 12 46
- 0.222797 2 3 cbr 210 ------- 2 1.0 3.1 29 52
- 0.22329 0 2 tcp 1040 ------- 1 0.0 3.0 14 51
+ 0.22375 1 2 cbr 210 ------- 2 1.0 3.1 33 60
- 0.22375 1 2 cbr 210 ------- 2 1.0 3.1 33 60
r 0.22377 2 0 ack 40 ------- 1 3.0 0.0 8 54
+ 0.22377 0 2 tcp 1040 ------- 1 0.0 3.0 17 61
+ 0.22377 0 2 tcp 1040 ------- 1 0.0 3.0 18 62
- 0.223917 2 3 tcp 1040 ------- 1 0.0 3.0 11 45
r 0.225223 3 2 ack 40 ------- 1 3.0 0.0 9 59
+ 0.225223 2 0 ack 40 ------- 1 3.0 0.0 9 59
- 0.225223 2 0 ack 40 ------- 1 3.0 0.0 9 59
r 0.22612 1 2 cbr 210 ------- 2 1.0 3.1 32 58
+ 0.22612 2 3 cbr 210 ------- 2 1.0 3.1 32 58
+ 0.2275 1 2 cbr 210 ------- 2 1.0 3.1 34 63
- 0.2275 1 2 cbr 210 ------- 2 1.0 3.1 34 63
r 0.227797 2 3 tcp 1040 ------- 1 0.0 3.0 10 41
+ 0.227797 3 2 ack 40 ------- 1 3.0 0.0 10 64
- 0.227797 3 2 ack 40 ------- 1 3.0 0.0 10 64
r 0.22829 0 2 tcp 1040 ------- 1 0.0 3.0 13 50
+ 0.22829 2 3 tcp 1040 ------- 1 0.0 3.0 13 50
- 0.228837 0 2 tcp 1040 ------- 1 0.0 3.0 15 55
r 0.228917 2 3 cbr 210 ------- 2 1.0 3.1 29 52
- 0.229463 2 3 cbr 210 ------- 2 1.0 3.1 30 53
r 0.22987 1 2 cbr 210 ------- 2 1.0 3.1 33 60
+ 0.22987 2 3 cbr 210 ------- 2 1.0 3.1 33 60
r 0.230437 2 0 ack 40 ------- 1 3.0 0.0 9 59
+ 0.230437 0 2 tcp 1040 ------- 1 0.0 3.0 19 65
+ 0.230437 0 2 tcp 1040 ------- 1 0.0 3.0 20 66
d 0.230437 0 2 tcp 1040 ------- 1 0.0 3.0 20 66
- 0.230583 2 3 cbr 210 ------- 2 1.0 3.1 31 57
+ 0.23125 1 2 cbr 210 ------- 2 1.0 3.1 35 67
- 0.23125 1 2 cbr 210 ------- 2 1.0 3.1 35 67
- 0.231703 2 3 cbr 210 ------- 2 1.0 3.1 32 58
- 0.232823 2 3 tcp 1040 ------- 1 0.0 3.0 13 50
r 0.23301 3 2 ack 40 ------- 1 3.0 0.0 10 64
+ 0.23301 2 0 ack 40 ------- 1 3.0 0.0 10 64
- 0.23301 2 0 ack 40 ------- 1 3.0 0.0 10 64
r 0.23362 1 2 cbr 210 ------- 2 1.0 3.1 34 63
+ 0.23362 2 3 cbr 210 ------- 2 1.0 3.1 34 63
r 0.233837 0 2 tcp 1040 ------- 1 0.0 3.0 14 51
+ 0.233837 2 3 tcp 1040 ------- 1 0.0 3.0 14 51
- 0.234383 0 2 tcp 1040 ------- 1 0.0 3.0 16 56
r 0.234463 2 3 tcp 1040 ------- 1 0.0 3.0 11 45
+ 0.234463 3 2 ack 40 ------- 1 3.0 0.0 11 68
- 0.234463 3 2 ack 40 ------- 1 3.0 0.0 11 68
+ 0.235 1 2 cbr 210 ------- 2 1.0 3.1 36 69
- 0.235 1 2 cbr 210 ------- 2 1.0 3.1 36 69
r 0.235583 2 3 cbr 210 ------- 2 1.0 3.1 30 53
r 0.236703 2 3 cbr 210 ------- 2 1.0 3.1 31 57
r 0.23737 1 2 cbr 210 ------- 2 1.0 3.1 35 67
+ 0.23737 2 3 cbr 210 ------- 2 1.0 3.1 35 67
r 0.237823 2 3 cbr 210 ------- 2 1.0 3.1 32 58
r 0.238223 2 0 ack 40 ------- 1 3.0 0.0 10 64
+ 0.238223 0 2 tcp 1040 ------- 1 0.0 3.0 21 70
+ 0.238223 0 2 tcp 1040 ------- 1 0.0 3.0 22 71
d 0.238223 0 2 tcp 1040 ------- 1 0.0 3.0 22 71
- 0.23837 2 3 cbr 210 ------- 2 1.0 3.1 33 60
+ 0.23875 1 2 cbr 210 ------- 2 1.0 3.1 37 72
- 0.23875 1 2 cbr 210 ------- 2 1.0 3.1 37 72
r 0.239383 0 2 tcp 1040 ------- 1 0.0 3.0 15 55
+ 0.239383 2 3 tcp 1040 ------- 1 0.0 3.0 15 55
- 0.23949 2 3 cbr 210 ------- 2 1.0 3.1 34 63
r 0.239677 3 2 ack 40 ------- 1 3.0 0.0 11 68
+ 0.239677 2 0 ack 40 ------- 1 3.0 0.0 11 68
- 0.239677 2 0 ack 40 ------- 1 3.0 0.0 11 68
- 0.23993 0 2 tcp 1040 ------- 1 0.0 3.0 17 61
- 0.24061 2 3 tcp 1040 ------- 1 0.0 3.0 14 51
r 0.24112 1 2 cbr 210 ------- 2 1.0 3.1 36 69
+ 0.24112 2 3 cbr 210 ------- 2 1.0 3.1 36 69
+ 0.2425 1 2 cbr 210 ------- 2 1.0 3.1 38 73
- 0.2425 1 2 cbr 210 ------- 2 1.0 3.1 38 73
r 0.24337 2 3 tcp 1040 ------- 1 0.0 3.0 13 50
+ 0.24337 3 2 ack 40 ------- 1 3.0 0.0 11 74
- 0.24337 3 2 ack 40 ------- 1 3.0 0.0 11 74
r 0.24449 2 3 cbr 210 ------- 2 1.0 3.1 33 60
r 0.24487 1 2 cbr 210 ------- 2 1.0 3.1 37 72
+ 0.24487 2 3 cbr 210 ------- 2 1.0 3.1 37 72
r 0.24489 2 0 ack 40 ------- 1 3.0 0.0 11 68
+ 0.24489 0 2 tcp 1040 ------- 1 0.0 3.0 23 75
+ 0.24489 0 2 tcp 1040 ------- 1 0.0 3.0 24 76
d 0.24489 0 2 tcp 1040 ------- 1 0.0 3.0 24 76
r 0.24493 0 2 tcp 1040 ------- 1 0.0 3.0 16 56
+ 0.24493 2 3 tcp 1040 ------- 1 0.0 3.0 16 56
d 0.24493 2 3 tcp 1040 ------- 1 0.0 3.0 16 56
- 0.245477 0 2 tcp 1040 ------- 1 0.0 3.0 18 62
r 0.24561 2 3 cbr 210 ------- 2 1.0 3.1 34 63
- 0.246157 2 3 cbr 210 ------- 2 1.0 3.1 35 67
+ 0.24625 1 2 cbr 210 ------- 2 1.0 3.1 39 77
- 0.24625 1 2 cbr 210 ------- 2 1.0 3.1 39 77
- 0.247277 2 3 tcp 1040 ------- 1 0.0 3.0 15 55
r 0.248583 3 2 ack 40 ------- 1 3.0 0.0 11 74
+ 0.248583 2 0 ack 40 ------- 1 3.0 0.0 11 74
- 0.248583 2 0 ack 40 ------- 1 3.0 0.0 11 74
r 0.24862 1 2 cbr 210 ------- 2 1.0 3.1 38 73
+ 0.24862 2 3 cbr 210 ------- 2 1.0 3.1 38 73
+ 0.25 1 2 cbr 210 ------- 2 1.0 3.1 40 78
- 0.25 1 2 cbr 210 ------- 2 1.0 3.1 40 78
r 0.250477 0 2 tcp 1040 ------- 1 0.0 3.0 17 61
+ 0.250477 2 3 tcp 1040 ------- 1 0.0 3.0 17 61
- 0.251023 0 2 tcp 1040 ------- 1 0.0 3.0 19 65
r 0.251157 2 3 tcp 1040 ------- 1 0.0 3.0 14 51
+ 0.251157 3 2 ack 40 ------- 1 3.0 0.0 11 79
- 0.251157 3 2 ack 40 ------- 1 3.0 0.0 11 79
r 0.252277 2 3 cbr 210 ------- 2 1.0 3.1 35 67
r 0.25237 1 2 cbr 210 ------- 2 1.0 3.1 39 77
+ 0.25237 2 3 cbr 210 ------- 2 1.0 3.1 39 77
d 0.25237 2 3 cbr 210 ------- 2 1.0 3.1 39 77
- 0.252823 2 3 cbr 210 ------- 2 1.0 3.1 36 69
+ 0.25375 1 2 cbr 210 ------- 2 1.0 3.1 41 80
- 0.25375 1 2 cbr 210 ------- 2 1.0 3.1 41 80
r 0.253797 2 0 ack 40 ------- 1 3.0 0.0 11 74
+ 0.253797 0 2 tcp 1040 ------- 1 0.0 3.0 25 81
- 0.253943 2 3 cbr 210 ------- 2 1.0 3.1 37 72
- 0.255063 2 3 cbr 210 ------- 2 1.0 3.1 38 73
r 0.256023 0 2 tcp 1040 ------- 1 0.0 3.0 18 62
+ 0.256023 2 3 tcp 1040 ------- 1 0.0 3.0 18 62
r 0.25612 1 2 cbr 210 ------- 2 1.0 3.1 40 78
+ 0.25612 2 3 cbr 210 ------- 2 1.0 3.1 40 78
- 0.256183 2 3 tcp 1040 ------- 1 0.0 3.0 17 61
r 0.25637 3 2 ack 40 ------- 1 3.0 0.0 11 79
+ 0.25637 2 0 ack 40 ------- 1 3.0 0.0 11 79
- 0.25637 2 0 ack 40 ------- 1 3.0 0.0 11 79
- 0.25657 0 2 tcp 1040 ------- 1 0.0 3.0 21 70
+ 0.2575 1 2 cbr 210 ------- 2 1.0 3.1 42 82
- 0.2575 1 2 cbr 210 ------- 2 1.0 3.1 42 82
r 0.257823 2 3 tcp 1040 ------- 1 0.0 3.0 15 55
+ 0.257823 3 2 ack 40 ------- 1 3.0 0.0 11 83
- 0.257823 3 2 ack 40 ------- 1 3.0 0.0 11 83
r 0.258943 2 3 cbr 210 ------- 2 1.0 3.1 36 69
r 0.25987 1 2 cbr 210 ------- 2 1.0 3.1 41 80
+ 0.25987 2 3 cbr 210 ------- 2 1.0 3.1 41 80
r 0.260063 2 3 cbr 210 ------- 2 1.0 3.1 37 72
r 0.261183 2 3 cbr 210 ------- 2 1.0 3.1 38 73
+ 0.26125 1 2 cbr 210 ------- 2 1.0 3.1 43 84
- 0.26125 1 2 cbr 210 ------- 2 1.0 3.1 43 84
r 0.26157 0 2 tcp 1040 ------- 1 0.0 3.0 19 65
+ 0.26157 2 3 tcp 1040 ------- 1 0.0 3.0 19 65
r 0.261583 2 0 ack 40 ------- 1 3.0 0.0 11 79
+ 0.261583 0 2 tcp 1040 ------- 1 0.0 3.0 26 85
- 0.26173 2 3 tcp 1040 ------- 1 0.0 3.0 18 62
- 0.262117 0 2 tcp 1040 ------- 1 0.0 3.0 23 75
r 0.263037 3 2 ack 40 ------- 1 3.0 0.0 11 83
+ 0.263037 2 0 ack 40 ------- 1 3.0 0.0 11 83
- 0.263037 2 0 ack 40 ------- 1 3.0 0.0 11 83
r 0.26362 1 2 cbr 210 ------- 2 1.0 3.1 42 82
+ 0.26362 2 3 cbr 210 ------- 2 1.0 3.1 42 82
+ 0.265 1 2 cbr 210 ------- 2 1.0 3.1 44 86
- 0.265 1 2 cbr 210 ------- 2 1.0 3.1 44 86
r 0.26673 2 3 tcp 1040 ------- 1 0.0 3.0 17 61
+ 0.26673 3 2 ack 40 ------- 1 3.0 0.0 11 87
- 0.26673 3 2 ack 40 ------- 1 3.0 0.0 11 87
r 0.267117 0 2 tcp 1040 ------- 1 0.0 3.0 21 70
+ 0.267117 2 3 tcp 1040 ------- 1 0.0 3.0 21 70
d 0.267117 2 3 tcp 1040 ------- 1 0.0 3.0 21 70
- 0.267277 2 3 cbr 210 ------- 2 1.0 3.1 40 78
r 0.26737 1 2 cbr 210 ------- 2 1.0 3.1 43 84
+ 0.26737 2 3 cbr 210 ------- 2 1.0 3.1 43 84
- 0.267663 0 2 tcp 1040 ------- 1 0.0 3.0 25 81
r 0.26825 2 0 ack 40 ------- 1 3.0 0.0 11 83
+ 0.26825 0 2 tcp 1040 ---A--- 1 0.0 3.0 12 88
- 0.268397 2 3 cbr 210 ------- 2 1.0 3.1 41 80
+ 0.26875 1 2 cbr 210 ------- 2 1.0 3.1 45 89
- 0.26875 1 2 cbr 210 ------- 2 1.0 3.1 45 89
- 0.269517 2 3 tcp 1040 ------- 1 0.0 3.0 19 65
r 0.27112 1 2 cbr 210 ------- 2 1.0 3.1 44 86
+ 0.27112 2 3 cbr 210 ------- 2 1.0 3.1 44 86
r 0.271943 3 2 ack 40 ------- 1 3.0 0.0 11 87
+ 0.271943 2 0 ack 40 ------- 1 3.0 0.0 11 87
- 0.271943 2 0 ack 40 ------- 1 3.0 0.0 11 87
r 0.272277 2 3 tcp 1040 ------- 1 0.0 3.0 18 62
+ 0.272277 3 2 ack 40 ------- 1 3.0 0.0 11 90
- 0.272277 3 2 ack 40 ------- 1 3.0 0.0 11 90
+ 0.2725 1 2 cbr 210 ------- 2 1.0 3.1 46 91
- 0.2725 1 2 cbr 210 ------- 2 1.0 3.1 46 91
r 0.272663 0 2 tcp 1040 ------- 1 0.0 3.0 23 75
+ 0.272663 2 3 tcp 1040 ------- 1 0.0 3.0 23 75
- 0.27321 0 2 tcp 1040 ------- 1 0.0 3.0 26 85
r 0.273397 2 3 cbr 210 ------- 2 1.0 3.1 40 78
r 0.274517 2 3 cbr 210 ------- 2 1.0 3.1 41 80
r 0.27487 1 2 cbr 210 ------- 2 1.0 3.1 45 89
+ 0.27487 2 3 cbr 210 ------- 2 1.0 3.1 45 89
d 0.27487 2 3 cbr 210 ------- 2 1.0 3.1 45 89
- 0.275063 2 3 cbr 210 ------- 2 1.0 3.1 42 82
- 0.276183 2 3 cbr 210 ------- 2 1.0 3.1 43 84
+ 0.27625 1 2 cbr 210 ------- 2 1.0 3.1 47 92
- 0.27625 1 2 cbr 210 ------- 2 1.0 3.1 47 92
r 0.277157 2 0 ack 40 ------- 1 3.0 0.0 11 87
- 0.277303 2 3 cbr 210 ------- 2 1.0 3.1 44 86
r 0.27749 3 2 ack 40 ------- 1 3.0 0.0 11 90
+ 0.27749 2 0 ack 40 ------- 1 3.0 0.0 11 90
- 0.27749 2 0 ack 40 ------- 1 3.0 0.0 11 90
r 0.27821 0 2 tcp 1040 ------- 1 0.0 3.0 25 81
+ 0.27821 2 3 tcp 1040 ------- 1 0.0 3.0 25 81
- 0.278423 2 3 tcp 1040 ------- 1 0.0 3.0 23 75
r 0.27862 1 2 cbr 210 ------- 2 1.0 3.1 46 91
+ 0.27862 2 3 cbr 210 ------- 2 1.0 3.1 46 91
- 0.278757 0 2 tcp 1040 ---A--- 1 0.0 3.0 12 88
+ 0.28 1 2 cbr 210 ------- 2 1.0 3.1 48 93
- 0.28 1 2 cbr 210 ------- 2 1.0 3.1 48 93
r 0.280063 2 3 tcp 1040 ------- 1 0.0 3.0 19 65
+ 0.280063 3 2 ack 40 ------- 1 3.0 0.0 11 94
- 0.280063 3 2 ack 40 ------- 1 3.0 0.0 11 94
r 0.281183 2 3 cbr 210 ------- 2 1.0 3.1 42 82
r 0.282303 2 3 cbr 210 ------- 2 1.0 3.1 43 84
r 0.28237 1 2 cbr 210 ------- 2 1.0 3.1 47 92
+ 0.28237 2 3 cbr 210 ------- 2 1.0 3.1 47 92
r 0.282703 2 0 ack 40 ------- 1 3.0 0.0 11 90
r 0.283423 2 3 cbr 210 ------- 2 1.0 3.1 44 86
+ 0.28375 1 2 cbr 210 ------- 2 1.0 3.1 49 95
- 0.28375 1 2 cbr 210 ------- 2 1.0 3.1 49 95
r 0.283757 0 2 tcp 1040 ------- 1 0.0 3.0 26 85
+ 0.283757 2 3 tcp 1040 ------- 1 0.0 3.0 26 85
- 0.28397 2 3 tcp 1040 ------- 1 0.0 3.0 25 81
r 0.285277 3 2 ack 40 ------- 1 3.0 0.0 11 94
+ 0.285277 2 0 ack 40 ------- 1 3.0 0.0 11 94
- 0.285277 2 0 ack 40 ------- 1 3.0 0.0 11 94
r 0.28612 1 2 cbr 210 ------- 2 1.0 3.1 48 93
+ 0.28612 2 3 cbr 210 ------- 2 1.0 3.1 48 93
+ 0.2875 1 2 cbr 210 ------- 2 1.0 3.1 50 96
- 0.2875 1 2 cbr 210 ------- 2 1.0 3.1 50 96
r 0.28897 2 3 tcp 1040 ------- 1 0.0 3.0 23 75
+ 0.28897 3 2 ack 40 ------- 1 3.0 0.0 11 97
- 0.28897 3 2 ack 40 ------- 1 3.0 0.0 11 97
r 0.289303 0 2 tcp 1040 ---A--- 1 0.0 3.0 12 88
+ 0.289303 2 3 tcp 1040 ---A--- 1 0.0 3.0 12 88
d 0.289303 2 3 tcp 1040 ---A--- 1 0.0 3.0 12 88
- 0.289517 2 3 cbr 210 ------- 2 1.0 3.1 46 91
r 0.28987 1 2 cbr 210 ------- 2 1.0 3.1 49 95
+ 0.28987 2 3 cbr 210 ------- 2 1.0 3.1 49 95
r 0.29049 2 0 ack 40 ------- 1 3.0 0.0 11 94
- 0.290637 2 3 cbr 210 ------- 2 1.0 3.1 47 92
+ 0.29125 1 2 cbr 210 ------- 2 1.0 3.1 51 98
- 0.29125 1 2 cbr 210 ------- 2 1.0 3.1 51 98
- 0.291757 2 3 tcp 1040 ------- 1 0.0 3.0 26 85
r 0.29362 1 2 cbr 210 ------- 2 1.0 3.1 50 96
+ 0.29362 2 3 cbr 210 ------- 2 1.0 3.1 50 96
r 0.294183 3 2 ack 40 ------- 1 3.0 0.0 11 97
+ 0.294183 2 0 ack 40 ------- 1 3.0 0.0 11 97
- 0.294183 2 0 ack 40 ------- 1 3.0 0.0 11 97
r 0.294517 2 3 tcp 1040 ------- 1 0.0 3.0 25 81
+ 0.294517 3 2 ack 40 ------- 1 3.0 0.0 11 99
- 0.294517 3 2 ack 40 ------- 1 3.0 0.0 11 99
+ 0.295 1 2 cbr 210 ------- 2 1.0 3.1 52 100
- 0.295 1 2 cbr 210 ------- 2 1.0 3.1 52 100
r 0.295637 2 3 cbr 210 ------- 2 1.0 3.1 46 91
r 0.296757 2 3 cbr 210 ------- 2 1.0 3.1 47 92
- 0.297303 2 3 cbr 210 ------- 2 1.0 3.1 48 93
r 0.29737 1 2 cbr 210 ------- 2 1.0 3.1 51 98
+ 0.29737 2 3 cbr 210 ------- 2 1.0 3.1 51 98
- 0.298423 2 3 cbr 210 ------- 2 1.0 3.1 49 95
+ 0.29875 1 2 cbr 210 ------- 2 1.0 3.1 53 101
- 0.29875 1 2 cbr 210 ------- 2 1.0 3.1 53 101
r 0.299397 2 0 ack 40 ------- 1 3.0 0.0 11 97
- 0.299543 2 3 cbr 210 ------- 2 1.0 3.1 50 96
r 0.29973 3 2 ack 40 ------- 1 3.0 0.0 11 99
+ 0.29973 2 0 ack 40 ------- 1 3.0 0.0 11 99
- 0.29973 2 0 ack 40 ------- 1 3.0 0.0 11 99
- 0.300663 2 3 cbr 210 ------- 2 1.0 3.1 51 98
r 0.30112 1 2 cbr 210 ------- 2 1.0 3.1 52 100
+ 0.30112 2 3 cbr 210 ------- 2 1.0 3.1 52 100
- 0.301783 2 3 cbr 210 ------- 2 1.0 3.1 52 100
r 0.302303 2 3 tcp 1040 ------- 1 0.0 3.0 26 85
+ 0.302303 3 2 ack 40 ------- 1 3.0 0.0 11 102
- 0.302303 3 2 ack 40 ------- 1 3.0 0.0 11 102
+ 0.3025 1 2 cbr 210 ------- 2 1.0 3.1 54 103
- 0.3025 1 2 cbr 210 ------- 2 1.0 3.1 54 103
r 0.303423 2 3 cbr 210 ------- 2 1.0 3.1 48 93
r 0.304543 2 3 cbr 210 ------- 2 1.0 3.1 49 95
r 0.30487 1 2 cbr 210 ------- 2 1.0 3.1 53 101
+ 0.30487 2 3 cbr 210 ------- 2 1.0 3.1 53 101
- 0.30487 2 3 cbr 210 ------- 2 1.0 3.1 53 101
r 0.304943 2 0 ack 40 ------- 1 3.0 0.0 11 99
r 0.305663 2 3 cbr 210 ------- 2 1.0 3.1 50 96
+ 0.30625 1 2 cbr 210 ------- 2 1.0 3.1 55 104
- 0.30625 1 2 cbr 210 ------- 2 1.0 3.1 55 104
r 0.306783 2 3 cbr 210 ------- 2 1.0 3.1 51 98
r 0.307517 3 2 ack 40 ------- 1 3.0 0.0 11 102
+ 0.307517 2 0 ack 40 ------- 1 3.0 0.0 11 102
- 0.307517 2 0 ack 40 ------- 1 3.0 0.0 11 102
r 0.307903 2 3 cbr 210 ------- 2 1.0 3.1 52 100
r 0.30862 1 2 cbr 210 ------- 2 1.0 3.1 54 103
+ 0.30862 2 3 cbr 210 ------- 2 1.0 3.1 54 103
- 0.30862 2 3 cbr 210 ------- 2 1.0 3.1 54 103
+ 0.31 1 2 cbr 210 ------- 2 1.0 3.1 56 105
- 0.31 1 2 cbr 210 ------- 2 1.0 3.1 56 105
r 0.31099 2 3 cbr 210 ------- 2 1.0 3.1 53 101
r 0.31237 1 2 cbr 210 ------- 2 1.0 3.1 55 104
+ 0.31237 2 3 cbr 210 ------- 2 1.0 3.1 55 104
- 0.31237 2 3 cbr 210 ------- 2 1.0 3.1 55 104
r 0.31273 2 0 ack 40 ------- 1 3.0 0.0 11 102
+ 0.31375 1 2 cbr 210 ------- 2 1.0 3.1 57 106
- 0.31375 1 2 cbr 210 ------- 2 1.0 3.1 57 106
r 0.31474 2 3 cbr 210 ------- 2 1.0 3.1 54 103
r 0.31612 1 2 cbr 210 ------- 2 1.0 3.1 56 105
+ 0.31612 2 3 cbr 210 ------- 2 1.0 3.1 56 105
- 0.31612 2 3 cbr 210 ------- 2 1.0 3.1 56 105
+ 0.3175 1 2 cbr 210 ------- 2 1.0 3.1 58 107
- 0.3175 1 2 cbr 210 ------- 2 1.0 3.1 58 107
r 0.31849 2 3 cbr 210 ------- 2 1.0 3.1 55 104
r 0.31987 1 2 cbr 210 ------- 2 1.0 3.1 57 106
+ 0.31987 2 3 cbr 210 ------- 2 1.0 3.1 57 106
- 0.31987 2 3 cbr 210 ------- 2 1.0 3.1 57 106
+ 0.32125 1 2 cbr 210 ------- 2 1.0 3.1 59 108
- 0.32125 1 2 cbr 210 ------- 2 1.0 3.1 59 108
r 0.32224 2 3 cbr 210 ------- 2 1.0 3.1 56 105
r 0.32362 1 2 cbr 210 ------- 2 1.0 3.1 58 107
+ 0.32362 2 3 cbr 210 ------- 2 1.0 3.1 58 107
- 0.32362 2 3 cbr 210 ------- 2 1.0 3.1 58 107
+ 0.325 1 2 cbr 210 ------- 2 1.0 3.1 60 109
- 0.325 1 2 cbr 210 ------- 2 1.0 3.1 60 109
r 0.32599 2 3 cbr 210 ------- 2 1.0 3.1 57 106
r 0.32737 1 2 cbr 210 ------- 2 1.0 3.1 59 108
+ 0.32737 2 3 cbr 210 ------- 2 1.0 3.1 59 108
- 0.32737 2 3 cbr 210 ------- 2 1.0 3.1 59 108
+ 0.32875 1 2 cbr 210 ------- 2 1.0 3.1 61 110
- 0.32875 1 2 cbr 210 ------- 2 1.0 3.1 61 110
r 0.32974 2 3 cbr 210 ------- 2 1.0 3.1 58 107
r 0.33112 1 2 cbr 210 ------- 2 1.0 3.1 60 109
+ 0.33112 2 3 cbr 210 ------- 2 1.0 3.1 60 109
- 0.33112 2 3 cbr 210 ------- 2 1.0 3.1 60 109
+ 0.3325 1 2 cbr 210 ------- 2 1.0 3.1 62 111
- 0.3325 1 2 cbr 210 ------- 2 1.0 3.1 62 111
r 0.33349 2 3 cbr 210 ------- 2 1.0 3.1 59 108
r 0.33487 1 2 cbr 210 ------- 2 1.0 3.1 61 110
+ 0.33487 2 3 cbr 210 ------- 2 1.0 3.1 61 110
- 0.33487 2 3 cbr 210 ------- 2 1.0 3.1 61 110
+ 0.33625 1 2 cbr 210 ------- 2 1.0 3.1 63 112
- 0.33625 1 2 cbr 210 ------- 2 1.0 3.1 63 112
r 0.33724 2 3 cbr 210 ------- 2 1.0 3.1 60 109
r 0.33862 1 2 cbr 210 ------- 2 1.0 3.1 62 111