V -t * -v 1.0a5 -a 0
A -t * -n 1 -p 0 -o 0x7fffffff -c 30 -a 1
A -t * -h 1 -m 1073741823 -s 0
c -t * -i 1 -n blue
c -t * -i 2 -n Red
n -t * -a 0 -s 0 -S UP -v circle -c black -i black
n -t * -a 1 -s 1 -S UP -v circle -c black -i black
n -t * -a 2 -s 2 -S UP -v circle -c black -i black
n -t * -a 3 -s 3 -S UP -v circle -c black -i black
l -t * -s 0 -d 2 -S UP -r 1500000 -D 0.0050000000000000001 -c black
l -t * -s 1 -d 2 -S UP -r 1500000 -D 0.0050000000000000001 -c black
l -t * -s 2 -d 3 -S UP -r 1500000 -D 0.0050000000000000001 -c black
+ -t 0.1 -s 0 -d 2 -p tcp -e 40 -c 1 -i 0 -a 1 -x {0.0 3.0 0 ------- null}
- -t 0.1 -s 0 -d 2 -p tcp -e 40 -c 1 -i 0 -a 1 -x {0.0 3.0 0 ------- null}
h -t 0.1 -s 0 -d 2 -p tcp -e 40 -c 1 -i 0 -a 1 -x {0.0 3.0 -1 ------- null}
+ -t 0.1 -s 1 -d 2 -p cbr -e 210 -c 2 -i 1 -a 2 -x {1.0 3.1 0 ------- null}
- -t 0.1 -s 1 -d 2 -p cbr -e 210 -c 2 -i 1 -a 2 -x {1.0 3.1 0 ------- null}
h -t 0.1 -s 1 -d 2 -p cbr -e 210 -c 2 -i 1 -a 2 -x {1.0 3.1 -1 ------- null}
+ -t 0.10375 -s 1 -d 2 -p cbr -e 210 -c 2 -i 2 -a 2 -x {1.0 3.1 1 ------- null}
- -t 0.10375 -s 1 -d 2 -p cbr -e 210 -c 2 -i 2 -a 2 -x {1.0 3.1 1 ------- null}
h -t 0.10375 -s 1 -d 2 -p cbr -e 210 -c 2 -i 2 -a 2 -x {1.0 3.1 -1 ------- null}
r -t 0.105213333333333 -s 0 -d 2 -p tcp -e 40 -c 1 -i 0 -a 1 -x {0.0 3.0 0 ------- null}
+ -t 0.105213333333333 -s 2 -d 3 -p tcp -e 40 -c 1 -i 0 -a 1 -x {0.0 3.0 0 ------- null}
- -t 0.105213333333333 -s 2 -d 3 -p tcp -e 40 -c 1 -i 0 -a 1 -x {0.0 3.0 0 ------- null}
h -t 0.105213333333333 -s 2 -d 3 -p tcp -e 40 -c 1 -i 0 -a 1 -x {0.0 3.0 -1 ------- null}
r -t 0.10612 -s 1 -d 2 -p cbr -e 210 -c 2 -i 1 -a 2 -x {1.0 3.1 0 ------- null}
+ -t 0.10612 -s 2 -d 3 -p cbr -e 210 -c 2 -i 1 -a 2 -x {1.0 3.1 0 ------- null}
- -t 0.10612 -s 2 -d 3 -p cbr -e 210 -c 2 -i 1 -a 2 -x {1.0 3.1 0 ------- null}
h -t 0.10612 -s 2 -d 3 -p cbr -e 210 -c 2 -i 1 -a 2 -x {1.0 3.1 -1 ------- null}
+ -t 0.1075 -s 1 -d 2 -p cbr -e 210 -c 2 -i 3 -a 2 -x {1.0 3.1 2 ------- null}
- -t 0.1075 -s 1 -d 2 -p cbr -e 210 -c 2 -i 3 -a 2 -x {1.0 3.1 2 ------- null}
h -t 0.1075 -s 1 -d 2 -p cbr -e 210 -c 2 -i 3 -a 2 -x {1.0 3.1 -1 ------- null}
r -t 0.10987 -s 1 -d 2 -p cbr -e 210 -c 2 -i 2 -a 2 -x {1.0 3.1 1 ------- null}
+ -t 0.10987 -s 2 -d 3 -p cbr -e 210 -c 2 -i 2 -a 2 -x {1.0 3.1 1 ------- null}
- -t 0.10987 -s 2 -d 3 -p cbr -e 210 -c 2 -i 2 -a 2 -x {1.0 3.1 1 ------- null}
h -t 0.10987 -s 2 -d 3 -p cbr -e 210 -c 2 -i 2 -a 2 -x {1.0 3.1 -1 ------- null}
r -t 0.110426666666667 -s 2 -d 3 -p tcp -e 40 -c 1 -i 0 -a 1 -x {0.0 3.0 0 ------- null}
+ -t 0.110426666666667 -s 3 -d 2 -p ack -e 40 -c 1 -i 4 -a 1 -x {3.0 0.0 0 ------- null}
- -t 0.110426666666667 -s 3 -d 2 -p ack -e 40 -c 1 -i 4 -a 1 -x {3.0 0.0 0 ------- null}
h -t 0.110426666666667 -s 3 -d 2 -p ack -e 40 -c 1 -i 4 -a 1 -x {3.0 0.0 -1 ------- null}
+ -t 0.11125 -s 1 -d 2 -p cbr -e 210 -c 2 -i 5 -a 2 -x {1.0 3.1 3 ------- null}
- -t 0.11125 -s 1 -d 2 -p cbr -e 210 -c 2 -i 5 -a 2 -x {1.0 3.1 3 ------- null}
h -t 0.11125 -s 1 -d 2 -p cbr -e 210 -c 2 -i 5 -a 2 -x {1.0 3.1 -1 ------- null}
r -t 0.11224 -s 2 -d 3 -p cbr -e 210 -c 2 -i 1 -a 2 -x {1.0 3.1 0 ------- null}
r -t 0.11362 -s 1 -d 2 -p cbr -e 210 -c 2 -i 3 -a 2 -x {1.0 3.1 2 ------- null}
+ -t 0.11362 -s 2 -d 3 -p cbr -e 210 -c 2 -i 3 -a 2 -x {1.0 3.1 2 ------- null}
- -t 0.11362 -s 2 -d 3 -p cbr -e 210 -c 2 -i 3 -a 2 -x {1.0 3.1 2 ------- null}
h -t 0.11362 -s 2 -d 3 -p cbr -e 210 -c 2 -i 3 -a 2 -x {1.0 3.1 -1 ------- null}
+ -t 0.115 -s 1 -d 2 -p cbr -e 210 -c 2 -i 6 -a 2 -x {1.0 3.1 4 ------- null}
- -t 0.115 -s 1 -d 2 -p cbr -e 210 -c 2 -i 6 -a 2 -x {1.0 3.1 4 ------- null}
h -t 0.115 -s 1 -d 2 -p cbr -e 210 -c 2 -i 6 -a 2 -x {1.0 3.1 -1 ------- null}
r -t 0.11564 -s 3 -d 2 -p ack -e 40 -c 1 -i 4 -a 1 -x {3.0 0.0 0 ------- null}
+ -t 0.11564 -s 2 -d 0 -p ack -e 40 -c 1 -i 4 -a 1 -x {3.0 0.0 0 ------- null}
- -t 0.11564 -s 2 -d 0 -p ack -e 40 -c 1 -i 4 -a 1 -x {3.0 0.0 0 ------- null}
h -t 0.11564 -s 2 -d 0 -p ack -e 40 -c 1 -i 4 -a 1 -x {3.0 0.0 -1 ------- null}
r -t 0.11599 -s 2 -d 3 -p cbr -e 210 -c 2 -i 2 -a 2 -x {1.0 3.1 1 ------- null}
r -t 0.11737 -s 1 -d 2 -p cbr -e 210 -c 2 -i 5 -a 2 -x {1.0 3.1 3 ------- null}
+ -t 0.11737 -s 2 -d 3 -p cbr -e 210 -c 2 -i 5 -a 2 -x {1.0 3.1 3 ------- null}
- -t 0.11737 -s 2 -d 3 -p cbr -e 210 -c 2 -i 5 -a 2 -x {1.0 3.1 3 ------- null}
h -t 0.11737 -s 2 -d 3 -p cbr -e 210 -c 2 -i 5 -a 2 -x {1.0 3.1 -1 ------- null}
+ -t 0.11875 -s 1 -d 2 -p cbr -e 210 -c 2 -i 7 -a 2 -x {1.0 3.1 5 ------- null}
- -t 0.11875 -s 1 -d 2 -p cbr -e 210 -c 2 -i 7 -a 2 -x {1.0 3.1 5 ------- null}
h -t 0.11875 -s 1 -d 2 -p cbr -e 210 -c 2 -i 7 -a 2 -x {1.0 3.1 -1 ------- null}
r -t 0.11974 -s 2 -d 3 -p cbr -e 210 -c 2 -i 3 -a 2 -x {1.0 3.1 2 ------- null}
r -t 0.120853333333333 -s 2 -d 0 -p ack -e 40 -c 1 -i 4 -a 1 -x {3.0 0.0 0 ------- null}
+ -t 0.120853333333333 -s 0 -d 2 -p tcp -e 1040 -c 1 -i 8 -a 1 -x {0.0 3.0 1 ------- null}
- -t 0.120853333333333 -s 0 -d 2 -p tcp -e 1040 -c 1 -i 8 -a 1 -x {0.0 3.0 1 ------- null}
h -t 0.120853333333333 -s 0 -d 2 -p tcp -e 1040 -c 1 -i 8 -a 1 -x {0.0 3.0 -1 ------- null}
+ -t 0.120853333333333 -s 0 -d 2 -p tcp -e 1040 -c 1 -i 9 -a 1 -x {0.0 3.0 2 ------- null}
r -t 0.12112 -s 1 -d 2 -p cbr -e 210 -c 2 -i 6 -a 2 -x {1.0 3.1 4 ------- null}
+ -t 0.12112 -s 2 -d 3 -p cbr -e 210 -c 2 -i 6 -a 2 -x {1.0 3.1 4 ------- null}
- -t 0.12112 -s 2 -d 3 -p cbr -e 210 -c 2 -i 6 -a 2 -x {1.0 3.1 4 ------- null}
h -t 0.12112 -s 2 -d 3 -p cbr -e 210 -c 2 -i 6 -a 2 -x {1.0 3.1 -1 ------- null}
+ -t 0.1225 -s 1 -d 2 -p cbr -e 210 -c 2 -i 10 -a 2 -x {1.0 3.1 6 ------- null}
- -t 0.1225 -s 1 -d 2 -p cbr -e 210 -c 2 -i 10 -a 2 -x {1.0 3.1 6 ------- null}
h -t 0.1225 -s 1 -d 2 -p cbr -e 210 -c 2 -i 10 -a 2 -x {1.0 3.1 -1 ------- null}
r -t 0.12349 -s 2 -d 3 -p cbr -e 210 -c 2 -i 5 -a 2 -x {1.0 3.1 3 ------- null}
r -t 0.12487 -s 1 -d 2 -p cbr -e 210 -c 2 -i 7 -a 2 -x {1.0 3.1 5 ------- null}
+ -t 0.12487 -s 2 -d 3 -p cbr -e 210 -c 2 -i 7 -a 2 -x {1.0 3.1 5 ------- null}
- -t 0.12487 -s 2 -d 3 -p cbr -e 210 -c 2 -i 7 -a 2 -x {1.0 3.1 5 ------- null}
h -t 0.12487 -s 2 -d 3 -p cbr -e 210 -c 2 -i 7 -a 2 -x {1.0 3.1 -1 ------- null}
+ -t 0.12625 -s 1 -d 2 -p cbr -e 210 -c 2 -i 11 -a 2 -x {1.0 3.1 7 ------- null}
- -t 0.12625 -s 1 -d 2 -p cbr -e 210 -c 2 -i 11 -a 2 -x {1.0 3.1 7 ------- null}
h -t 0.12625 -s 1 -d 2 -p cbr -e 210 -c 2 -i 11 -a 2 -x {1.0 3.1 -1 ------- null}
- -t 0.1264 -s 0 -d 2 -p tcp -e 1040 -c 1 -i 9 -a 1 -x {0.0 3.0 2 ------- null}
h -t 0.1264 -s 0 -d 2 -p tcp -e 1040 -c 1 -i 9 -a 1 -x {0.0 3.0 -1 ------- null}
r -t 0.12724 -s 2 -d 3 -p cbr -e 210 -c 2 -i 6 -a 2 -x {1.0 3.1 4 ------- null}
r -t 0.12862 -s 1 -d 2 -p cbr -e 210 -c 2 -i 10 -a 2 -x {1.0 3.1 6 ------- null}
+ -t 0.12862 -s 2 -d 3 -p cbr -e 210 -c 2 -i 10 -a 2 -x {1.0 3.1 6 ------- null}
- -t 0.12862 -s 2 -d 3 -p cbr -e 210 -c 2 -i 10 -a 2 -x {1.0 3.1 6 ------- null}
h -t 0.12862 -s 2 -d 3 -p cbr -e 210 -c 2 -i 10 -a 2 -x {1.0 3.1 -1 ------- null}
+ -t 0.13 -s 1 -d 2 -p cbr -e 210 -c 2 -i 12 -a 2 -x {1.0 3.1 8 ------- null}
- -t 0.13 -s 1 -d 2 -p cbr -e 210 -c 2 -i 12 -a 2 -x {1.0 3.1 8 ------- null}
h -t 0.13 -s 1 -d 2 -p cbr -e 210 -c 2 -i 12 -a 2 -x {1.0 3.1 -1 ------- null}
r -t 0.13099 -s 2 -d 3 -p cbr -e 210 -c 2 -i 7 -a 2 -x {1.0 3.1 5 ------- null}
r -t 0.1314 -s 0 -d 2 -p tcp -e 1040 -c 1 -i 8 -a 1 -x {0.0 3.0 1 ------- null}
+ -t 0.1314 -s 2 -d 3 -p tcp -e 1040 -c 1 -i 8 -a 1 -x {0.0 3.0 1 ------- null}
- -t 0.1314 -s 2 -d 3 -p tcp -e 1040 -c 1 -i 8 -a 1 -x {0.0 3.0 1 ------- null}
h -t 0.1314 -s 2 -d 3 -p tcp -e 1040 -c 1 -i 8 -a 1 -x {0.0 3.0 -1 ------- null}
r -t 0.13237 -s 1 -d 2 -p cbr -e 210 -c 2 -i 11 -a 2 -x {1.0 3.1 7 ------- null}
+ -t 0.13237 -s 2 -d 3 -p cbr -e 210 -c 2 -i 11 -a 2 -x {1.0 3.1 7 ------- null}
+ -t 0.13375 -s 1 -d 2 -p cbr -e 210 -c 2 -i 13 -a 2 -x {1.0 3.1 9 ------- null}
- -t 0.13375 -s 1 -d 2 -p cbr -e 210 -c 2 -i 13 -a 2 -x {1.0 3.1 9 ------- null}
h -t 0.13375 -s 1 -d 2 -p cbr -e 210 -c 2 -i 13 -a 2 -x {1.0 3.1 -1 ------- null}
r -t 0.13474 -s 2 -d 3 -p cbr -e 210 -c 2 -i 10 -a 2 -x {1.0 3.1 6 ------- null}
r -t 0.13612 -s 1 -d 2 -p cbr -e 210 -c 2 -i 12 -a 2 -x {1.0 3.1 8 ------- null}
+ -t 0.13612 -s 2 -d 3 -p cbr -e 210 -c 2 -i 12 -a 2 -x {1.0 3.1 8 ------- null}
r -t 0.136946666666667 -s 0 -d 2 -p tcp -e 1040 -c 1 -i 9 -a 1 -x {0.0 3.0 2 ------- null}
+ -t 0.136946666666667 -s 2 -d 3 -p tcp -e 1040 -c 1 -i 9 -a 1 -x {0.0 3.0 2 ------- null}
- -t 0.136946666666667 -s 2 -d 3 -p cbr -e 210 -c 2 -i 11 -a 2 -x {1.0 3.1 7 ------- null}
h -t 0.136946666666667 -s 2 -d 3 -p cbr -e 210 -c 2 -i 11 -a 2 -x {1.0 3.1 -1 ------- null}
+ -t 0.1375 -s 1 -d 2 -p cbr -e 210 -c 2 -i 14 -a 2 -x {1.0 3.1 10 ------- null}
- -t 0.1375 -s 1 -d 2 -p cbr -e 210 -c 2 -i 14 -a 2 -x {1.0 3.1 10 ------- null}
h -t 0.1375 -s 1 -d 2 -p cbr -e 210 -c 2 -i 14 -a 2 -x {1.0 3.1 -1 ------- null}
- -t 0.138066666666667 -s 2 -d 3 -p cbr -e 210 -c 2 -i 12 -a 2 -x {1.0 3.1 8 ------- null}
h -t 0.138066666666667 -s 2 -d 3 -p cbr -e 210 -c 2 -i 12 -a 2 -x {1.0 3.1 -1 ------- null}
- -t 0.139186666666667 -s 2 -d 3 -p tcp -e 1040 -c 1 -i 9 -a 1 -x {0.0 3.0 2 ------- null}
h -t 0.139186666666667 -s 2 -d 3 -p tcp -e 1040 -c 1 -i 9 -a 1 -x {0.0 3.0 -1 ------- null}
r -t 0.13987 -s 1 -d 2 -p cbr -e 210 -c 2 -i 13 -a 2 -x {1.0 3.1 9 ------- null}
+ -t 0.13987 -s 2 -d 3 -p cbr -e 210 -c 2 -i 13 -a 2 -x {1.0 3.1 9 ------- null}
+ -t 0.14125 -s 1 -d 2 -p cbr -e 210 -c 2 -i 15 -a 2 -x {1.0 3.1 11 ------- null}
- -t 0.14125 -s 1 -d 2 -p cbr -e 210 -c 2 -i 15 -a 2 -x {1.0 3.1 11 ------- null}
h -t 0.14125 -s 1 -d 2 -p cbr -e 210 -c 2 -i 15 -a 2 -x {1.0 3.1 -1 ------- null}
r -t 0.141946666666667 -s 2 -d 3 -p tcp -e 1040 -c 1 -i 8 -a 1 -x {0.0 3.0 1 ------- null}
+ -t 0.141946666666667 -s 3 -d 2 -p ack -e 40 -c 1 -i 16 -a 1 -x {3.0 0.0 1 ------- null}
- -t 0.141946666666667 -s 3 -d 2 -p ack -e 40 -c 1 -i 16 -a 1 -x {3.0 0.0 1 ------- null}
h -t 0.141946666666667 -s 3 -d 2 -p ack -e 40 -c 1 -i 16 -a 1 -x {3.0 0.0 -1 ------- null}
r -t 0.143066666666667 -s 2 -d 3 -p cbr -e 210 -c 2 -i 11 -a 2 -x {1.0 3.1 7 ------- null}
r -t 0.14362 -s 1 -d 2 -p cbr -e 210 -c 2 -i 14 -a 2 -x {1.0 3.1 10 ------- null}
+ -t 0.14362 -s 2 -d 3 -p cbr -e 210 -c 2 -i 14 -a 2 -x {1.0 3.1 10 ------- null}
r -t 0.144186666666667 -s 2 -d 3 -p cbr -e 210 -c 2 -i 12 -a 2 -x {1.0 3.1 8 ------- null}
- -t 0.144733333333333 -s 2 -d 3 -p cbr -e 210 -c 2 -i 13 -a 2 -x {1.0 3.1 9 ------- null}
h -t 0.144733333333333 -s 2 -d 3 -p cbr -e 210 -c 2 -i 13 -a 2 -x {1.0 3.1 -1 ------- null}
+ -t 0.145 -s 1 -d 2 -p cbr -e 210 -c 2 -i 17 -a 2 -x {1.0 3.1 12 ------- null}
- -t 0.145 -s 1 -d 2 -p cbr -e 210 -c 2 -i 17 -a 2 -x {1.0 3.1 12 ------- null}
h -t 0.145 -s 1 -d 2 -p cbr -e 210 -c 2 -i 17 -a 2 -x {1.0 3.1 -1 ------- null}
- -t 0.145853333333333 -s 2 -d 3 -p cbr -e 210 -c 2 -i 14 -a 2 -x {1.0 3.1 10 ------- null}
h -t 0.145853333333333 -s 2 -d 3 -p cbr -e 210 -c 2 -i 14 -a 2 -x {1.0 3.1 -1 ------- null}
r -t 0.14716 -s 3 -d 2 -p ack -e 40 -c 1 -i 16 -a 1 -x {3.0 0.0 1 ------- null}
+ -t 0.14716 -s 2 -d 0 -p ack -e 40 -c 1 -i 16 -a 1 -x {3.0 0.0 1 ------- null}
- -t 0.14716 -s 2 -d 0 -p ack -e 40 -c 1 -i 16 -a 1 -x {3.0 0.0 1 ------- null}
h -t 0.14716 -s 2 -d 0 -p ack -e 40 -c 1 -i 16 -a 1 -x {3.0 0.0 -1 ------- null}
r -t 0.14737 -s 1 -d 2 -p cbr -e 210 -c 2 -i 15 -a 2 -x {1.0 3.1 11 ------- null}
+ -t 0.14737 -s 2 -d 3 -p cbr -e 210 -c 2 -i 15 -a 2 -x {1.0 3.1 11 ------- null}
- -t 0.14737 -s 2 -d 3 -p cbr -e 210 -c 2 -i 15 -a 2 -x {1.0 3.1 11 ------- null}
h -t 0.14737 -s 2 -d 3 -p cbr -e 210 -c 2 -i 15 -a 2 -x {1.0 3.1 -1 ------- null}
+ -t 0.14875 -s 1 -d 2 -p cbr -e 210 -c 2 -i 18 -a 2 -x {1.0 3.1 13 ------- null}
- -t 0.14875 -s 1 -d 2 -p cbr -e 210 -c 2 -i 18 -a 2 -x {1.0 3.1 13 ------- null}
h -t 0.14875 -s 1 -d 2 -p cbr -e 210 -c 2 -i 18 -a 2 -x {1.0 3.1 -1 ------- null}
r -t 0.149733333333333 -s 2 -d 3 -p tcp -e 1040 -c 1 -i 9 -a 1 -x {0.0 3.0 2 ------- null}
+ -t 0.149733333333333 -s 3 -d 2 -p ack -e 40 -c 1 -i 19 -a 1 -x {3.0 0.0 2 ------- null}
- -t 0.149733333333333 -s 3 -d 2 -p ack -e 40 -c 1 -i 19 -a 1 -x {3.0 0.0 2 ------- null}
h -t 0.149733333333333 -s 3 -d 2 -p ack -e 40 -c 1 -i 19 -a 1 -x {3.0 0.0 -1 ------- null}
r -t 0.150853333333333 -s 2 -d 3 -p cbr -e 210 -c 2 -i 13 -a 2 -x {1.0 3.1 9 ------- null}
r -t 0.15112 -s 1 -d 2 -p cbr -e 210 -c 2 -i 17 -a 2 -x {1.0 3.1 12 ------- null}
+ -t 0.15112 -s 2 -d 3 -p cbr -e 210 -c 2 -i 17 -a 2 -x {1.0 3.1 12 ------- null}
- -t 0.15112 -s 2 -d 3 -p cbr -e 210 -c 2 -i 17 -a 2 -x {1.0 3.1 12 ------- null}
h -t 0.15112 -s 2 -d 3 -p cbr -e 210 -c 2 -i 17 -a 2 -x {1.0 3.1 -1 ------- null}
r -t 0.151973333333333 -s 2 -d 3 -p cbr -e 210 -c 2 -i 14 -a 2 -x {1.0 3.1 10 ------- null}
r -t 0.152373333333333 -s 2 -d 0 -p ack -e 40 -c 1 -i 16 -a 1 -x {3.0 0.0 1 ------- null}
+ -t 0.152373333333333 -s 0 -d 2 -p tcp -e 1040 -c 1 -i 20 -a 1 -x {0.0 3.0 3 ------- null}
- -t 0.152373333333333 -s 0 -d 2 -p tcp -e 1040 -c 1 -i 20 -a 1 -x {0.0 3.0 3 ------- null}
h -t 0.152373333333333 -s 0 -d 2 -p tcp -e 1040 -c 1 -i 20 -a 1 -x {0.0 3.0 -1 ------- null}
+ -t 0.152373333333333 -s 0 -d 2 -p tcp -e 1040 -c 1 -i 21 -a 1 -x {0.0 3.0 4 ------- null}
+ -t 0.1525 -s 1 -d 2 -p cbr -e 210 -c 2 -i 22 -a 2 -x {1.0 3.1 14 ------- null}
- -t 0.1525 -s 1 -d 2 -p cbr -e 210 -c 2 -i 22 -a 2 -x {1.0 3.1 14 ------- null}
h -t 0.1525 -s 1 -d 2 -p cbr -e 210 -c 2 -i 22 -a 2 -x {1.0 3.1 -1 ------- null}
r -t 0.15349 -s 2 -d 3 -p cbr -e 210 -c 2 -i 15 -a 2 -x {1.0 3.1 11 ------- null}
r -t 0.15487 -s 1 -d 2 -p cbr -e 210 -c 2 -i 18 -a 2 -x {1.0 3.1 13 ------- null}
+ -t 0.15487 -s 2 -d 3 -p cbr -e 210 -c 2 -i 18 -a 2 -x {1.0 3.1 13 ------- null}
- -t 0.15487 -s 2 -d 3 -p cbr -e 210 -c 2 -i 18 -a 2 -x {1.0 3.1 13 ------- null}
h -t 0.15487 -s 2 -d 3 -p cbr -e 210 -c 2 -i 18 -a 2 -x {1.0 3.1 -1 ------- null}
r -t 0.154946666666667 -s 3 -d 2 -p ack -e 40 -c 1 -i 19 -a 1 -x {3.0 0.0 2 ------- null}
+ -t 0.154946666666667 -s 2 -d 0 -p ack -e 40 -c 1 -i 19 -a 1 -x {3.0 0.0 2 ------- null}
- -t 0.154946666666667 -s 2 -d 0 -p ack -e 40 -c 1 -i 19 -a 1 -x {3.0 0.0 2 ------- null}
h -t 0.154946666666667 -s 2 -d 0 -p ack -e 40 -c 1 -i 19 -a 1 -x {3.0 0.0 -1 ------- null}
+ -t 0.15625 -s 1 -d 2 -p cbr -e 210 -c 2 -i 23 -a 2 -x {1.0 3.1 15 ------- null}
- -t 0.15625 -s 1 -d 2 -p cbr -e 210 -c 2 -i 23 -a 2 -x {1.0 3.1 15 ------- null}
h -t 0.15625 -s 1 -d 2 -p cbr -e 210 -c 2 -i 23 -a 2 -x {1.0 3.1 -1 ------- null}
r -t 0.15724 -s 2 -d 3 -p cbr -e 210 -c 2 -i 17 -a 2 -x {1.0 3.1 12 ------- null}
- -t 0.15792 -s 0 -d 2 -p tcp -e 1040 -c 1 -i 21 -a 1 -x {0.0 3.0 4 ------- null}
h -t 0.15792 -s 0 -d 2 -p tcp -e 1040 -c 1 -i 21 -a 1 -x {0.0 3.0 -1 ------- null}
r -t 0.15862 -s 1 -d 2 -p cbr -e 210 -c 2 -i 22 -a 2 -x {1.0 3.1 14 ------- null}
+ -t 0.15862 -s 2 -d 3 -p cbr -e 210 -c 2 -i 22 -a 2 -x {1.0 3.1 14 ------- null}
- -t 0.15862 -s 2 -d 3 -p cbr -e 210 -c 2 -i 22 -a 2 -x {1.0 3.1 14 ------- null}
h -t 0.15862 -s 2 -d 3 -p cbr -e 210 -c 2 -i 22 -a 2 -x {1.0 3.1 -1 ------- null}
+ -t 0.16 -s 1 -d 2 -p cbr -e 210 -c 2 -i 24 -a 2 -x {1.0 3.1 16 ------- null}
- -t 0.16 -s 1 -d 2 -p cbr -e 210 -c 2 -i 24 -a 2 -x {1.0 3.1 16 ------- null}
h -t 0.16 -s 1 -d 2 -p cbr -e 210 -c 2 -i 24 -a 2 -x {1.0 3.1 -1 ------- null}
r -t 0.16016 -s 2 -d 0 -p ack -e 40 -c 1 -i 19 -a 1 -x {3.0 0.0 2 ------- null}
+ -t 0.16016 -s 0 -d 2 -p tcp -e 1040 -c 1 -i 25 -a 1 -x {0.0 3.0 5 ------- null}
+ -t 0.16016 -s 0 -d 2 -p tcp -e 1040 -c 1 -i 26 -a 1 -x {0.0 3.0 6 ------- null}
r -t 0.16099 -s 2 -d 3 -p cbr -e 210 -c 2 -i 18 -a 2 -x {1.0 3.1 13 ------- null}
r -t 0.16237 -s 1 -d 2 -p cbr -e 210 -c 2 -i 23 -a 2 -x {1.0 3.1 15 ------- null}
+ -t 0.16237 -s 2 -d 3 -p cbr -e 210 -c 2 -i 23 -a 2 -x {1.0 3.1 15 ------- null}
- -t 0.16237 -s 2 -d 3 -p cbr -e 210 -c 2 -i 23 -a 2 -x {1.0 3.1 15 ------- null}
h -t 0.16237 -s 2 -d 3 -p cbr -e 210 -c 2 -i 23 -a 2 -x {1.0 3.1 -1 ------- null}
r -t 0.16292 -s 0 -d 2 -p tcp -e 1040 -c 1 -i 20 -a 1 -x {0.0 3.0 3 ------- null}
+ -t 0.16292 -s 2 -d 3 -p tcp -e 1040 -c 1 -i 20 -a 1 -x {0.0 3.0 3 ------- null}
- -t 0.163466666666667 -s 0 -d 2 -p tcp -e 1040 -c 1 -i 25 -a 1 -x {0.0 3.0 5 ------- null}
h -t 0.163466666666667 -s 0 -d 2 -p tcp -e 1040 -c 1 -i 25 -a 1 -x {0.0 3.0 -1 ------- null}
- -t 0.16349 -s 2 -d 3 -p tcp -e 1040 -c 1 -i 20 -a 1 -x {0.0 3.0 3 ------- null}
h -t 0.16349 -s 2 -d 3 -p tcp -e 1040 -c 1 -i 20 -a 1 -x {0.0 3.0 -1 ------- null}
+ -t 0.16375 -s 1 -d 2 -p cbr -e 210 -c 2 -i 27 -a 2 -x {1.0 3.1 17 ------- null}
- -t 0.16375 -s 1 -d 2 -p cbr -e 210 -c 2 -i 27 -a 2 -x {1.0 3.1 17 ------- null}
h -t 0.16375 -s 1 -d 2 -p cbr -e 210 -c 2 -i 27 -a 2 -x {1.0 3.1 -1 ------- null}
r -t 0.16474 -s 2 -d 3 -p cbr -e 210 -c 2 -i 22 -a 2 -x {1.0 3.1 14 ------- null}
r -t 0.16612 -s 1 -d 2 -p cbr -e 210 -c 2 -i 24 -a 2 -x {1.0 3.1 16 ------- null}
+ -t 0.16612 -s 2 -d 3 -p cbr -e 210 -c 2 -i 24 -a 2 -x {1.0 3.1 16 ------- null}
+ -t 0.1675 -s 1 -d 2 -p cbr -e 210 -c 2 -i 28 -a 2 -x {1.0 3.1 18 ------- null}
- -t 0.1675 -s 1 -d 2 -p cbr -e 210 -c 2 -i 28 -a 2 -x {1.0 3.1 18 ------- null}
h -t 0.1675 -s 1 -d 2 -p cbr -e 210 -c 2 -i 28 -a 2 -x {1.0 3.1 -1 ------- null}
r -t 0.168466666666667 -s 0 -d 2 -p tcp -e 1040 -c 1 -i 21 -a 1 -x {0.0 3.0 4 ------- null}
+ -t 0.168466666666667 -s 2 -d 3 -p tcp -e 1040 -c 1 -i 21 -a 1 -x {0.0 3.0 4 ------- null}
r -t 0.16849 -s 2 -d 3 -p cbr -e 210 -c 2 -i 23 -a 2 -x {1.0 3.1 15 ------- null}
- -t 0.169013333333333 -s 0 -d 2 -p tcp -e 1040 -c 1 -i 26 -a 1 -x {0.0 3.0 6 ------- null}
h -t 0.169013333333333 -s 0 -d 2 -p tcp -e 1040 -c 1 -i 26 -a 1 -x {0.0 3.0 -1 ------- null}
- -t 0.169036666666667 -s 2 -d 3 -p cbr -e 210 -c 2 -i 24 -a 2 -x {1.0 3.1 16 ------- null}
h -t 0.169036666666667 -s 2 -d 3 -p cbr -e 210 -c 2 -i 24 -a 2 -x {1.0 3.1 -1 ------- null}
r -t 0.16987 -s 1 -d 2 -p cbr -e 210 -c 2 -i 27 -a 2 -x {1.0 3.1 17 ------- null}
+ -t 0.16987 -s 2 -d 3 -p cbr -e 210 -c 2 -i 27 -a 2 -x {1.0 3.1 17 ------- null}
- -t 0.170156666666667 -s 2 -d 3 -p tcp -e 1040 -c 1 -i 21 -a 1 -x {0.0 3.0 4 ------- null}
h -t 0.170156666666667 -s 2 -d 3 -p tcp -e 1040 -c 1 -i 21 -a 1 -x {0.0 3.0 -1 ------- null}
+ -t 0.17125 -s 1 -d 2 -p cbr -e 210 -c 2 -i 29 -a 2 -x {1.0 3.1 19 ------- null}
- -t 0.17125 -s 1 -d 2 -p cbr -e 210 -c 2 -i 29 -a 2 -x {1.0 3.1 19 ------- null}
h -t 0.17125 -s 1 -d 2 -p cbr -e 210 -c 2 -i 29 -a 2 -x {1.0 3.1 -1 ------- null}
r -t 0.17362 -s 1 -d 2 -p cbr -e 210 -c 2 -i 28 -a 2 -x {1.0 3.1 18 ------- null}
+ -t 0.17362 -s 2 -d 3 -p cbr -e 210 -c 2 -i 28 -a 2 -x {1.0 3.1 18 ------- null}
r -t 0.174013333333333 -s 0 -d 2 -p tcp -e 1040 -c 1 -i 25 -a 1 -x {0.0 3.0 5 ------- null}
+ -t 0.174013333333333 -s 2 -d 3 -p tcp -e 1040 -c 1 -i 25 -a 1 -x {0.0 3.0 5 ------- null}
r -t 0.174036666666667 -s 2 -d 3 -p tcp -e 1040 -c 1 -i 20 -a 1 -x {0.0 3.0 3 ------- null}
+ -t 0.174036666666667 -s 3 -d 2 -p ack -e 40 -c 1 -i 30 -a 1 -x {3.0 0.0 3 ------- null}
- -t 0.174036666666667 -s 3 -d 2 -p ack -e 40 -c 1 -i 30 -a 1 -x {3.0 0.0 3 ------- null}
h -t 0.174036666666667 -s 3 -d 2 -p ack -e 40 -c 1 -i 30 -a 1 -x {3.0 0.0 -1 ------- null}
+ -t 0.175 -s 1 -d 2 -p cbr -e 210 -c 2 -i 31 -a 2 -x {1.0 3.1 20 ------- null}
- -t 0.175 -s 1 -d 2 -p cbr -e 210 -c 2 -i 31 -a 2 -x {1.0 3.1 20 ------- null}
h -t 0.175 -s 1 -d 2 -p cbr -e 210 -c 2 -i 31 -a 2 -x {1.0 3.1 -1 ------- null}
r -t 0.175156666666667 -s 2 -d 3 -p cbr -e 210 -c 2 -i 24 -a 2 -x {1.0 3.1 16 ------- null}
- -t 0.175703333333333 -s 2 -d 3 -p cbr -e 210 -c 2 -i 27 -a 2 -x {1.0 3.1 17 ------- null}
h -t 0.175703333333333 -s 2 -d 3 -p cbr -e 210 -c 2 -i 27 -a 2 -x {1.0 3.1 -1 ------- null}
- -t 0.176823333333333 -s 2 -d 3 -p cbr -e 210 -c 2 -i 28 -a 2 -x {1.0 3.1 18 ------- null}
h -t 0.176823333333333 -s 2 -d 3 -p cbr -e 210 -c 2 -i 28 -a 2 -x {1.0 3.1 -1 ------- null}
r -t 0.17737 -s 1 -d 2 -p cbr -e 210 -c 2 -i 29 -a 2 -x {1.0 3.1 19 ------- null}
+ -t 0.17737 -s 2 -d 3 -p cbr -e 210 -c 2 -i 29 -a 2 -x {1.0 3.1 19 ------- null}
- -t 0.177943333333333 -s 2 -d 3 -p tcp -e 1040 -c 1 -i 25 -a 1 -x {0.0 3.0 5 ------- null}
h -t 0.177943333333333 -s 2 -d 3 -p tcp -e 1040 -c 1 -i 25 -a 1 -x {0.0 3.0 -1 ------- null}
+ -t 0.17875 -s 1 -d 2 -p cbr -e 210 -c 2 -i 32 -a 2 -x {1.0 3.1 21 ------- null}
- -t 0.17875 -s 1 -d 2 -p cbr -e 210 -c 2 -i 32 -a 2 -x {1.0 3.1 21 ------- null}
h -t 0.17875 -s 1 -d 2 -p cbr -e 210 -c 2 -i 32 -a 2 -x {1.0 3.1 -1 ------- null}
r -t 0.17925 -s 3 -d 2 -p ack -e 40 -c 1 -i 30 -a 1 -x {3.0 0.0 3 ------- null}
+ -t 0.17925 -s 2 -d 0 -p ack -e 40 -c 1 -i 30 -a 1 -x {3.0 0.0 3 ------- null}
- -t 0.17925 -s 2 -d 0 -p ack -e 40 -c 1 -i 30 -a 1 -x {3.0 0.0 3 ------- null}
h -t 0.17925 -s 2 -d 0 -p ack -e 40 -c 1 -i 30 -a 1 -x {3.0 0.0 -1 ------- null}
r -t 0.17956 -s 0 -d 2 -p tcp -e 1040 -c 1 -i 26 -a 1 -x {0.0 3.0 6 ------- null}
+ -t 0.17956 -s 2 -d 3 -p tcp -e 1040 -c 1 -i 26 -a 1 -x {0.0 3.0 6 ------- null}
r -t 0.180703333333333 -s 2 -d 3 -p tcp -e 1040 -c 1 -i 21 -a 1 -x {0.0 3.0 4 ------- null}
+ -t 0.180703333333333 -s 3 -d 2 -p ack -e 40 -c 1 -i 33 -a 1 -x {3.0 0.0 4 ------- null}
- -t 0.180703333333333 -s 3 -d 2 -p ack -e 40 -c 1 -i 33 -a 1 -x {3.0 0.0 4 ------- null}
h -t 0.180703333333333 -s 3 -d 2 -p ack -e 40 -c 1 -i 33 -a 1 -x {3.0 0.0 -1 ------- null}
r -t 0.18112 -s 1 -d 2 -p cbr -e 210 -c 2 -i 31 -a 2 -x {1.0 3.1 20 ------- null}
+ -t 0.18112 -s 2 -d 3 -p cbr -e 210 -c 2 -i 31 -a 2 -x {1.0 3.1 20 ------- null}
r -t 0.181823333333333 -s 2 -d 3 -p cbr -e 210 -c 2 -i 27 -a 2 -x {1.0 3.1 17 ------- null}
+ -t 0.1825 -s 1 -d 2 -p cbr -e 210 -c 2 -i 34 -a 2 -x {1.0 3.1 22 ------- null}
- -t 0.1825 -s 1 -d 2 -p cbr -e 210 -c 2 -i 34 -a 2 -x {1.0 3.1 22 ------- null}
h -t 0.1825 -s 1 -d 2 -p cbr -e 210 -c 2 -i 34 -a 2 -x {1.0 3.1 -1 ------- null}
r -t 0.182943333333333 -s 2 -d 3 -p cbr -e 210 -c 2 -i 28 -a 2 -x {1.0 3.1 18 ------- null}
- -t 0.18349 -s 2 -d 3 -p cbr -e 210 -c 2 -i 29 -a 2 -x {1.0 3.1 19 ------- null}
h -t 0.18349 -s 2 -d 3 -p cbr -e 210 -c 2 -i 29 -a 2 -x {1.0 3.1 -1 ------- null}
r -t 0.184463333333333 -s 2 -d 0 -p ack -e 40 -c 1 -i 30 -a 1 -x {3.0 0.0 3 ------- null}
+ -t 0.184463333333333 -s 0 -d 2 -p tcp -e 1040 -c 1 -i 35 -a 1 -x {0.0 3.0 7 ------- null}
- -t 0.184463333333333 -s 0 -d 2 -p tcp -e 1040 -c 1 -i 35 -a 1 -x {0.0 3.0 7 ------- null}
h -t 0.184463333333333 -s 0 -d 2 -p tcp -e 1040 -c 1 -i 35 -a 1 -x {0.0 3.0 -1 ------- null}
+ -t 0.184463333333333 -s 0 -d 2 -p tcp -e 1040 -c 1 -i 36 -a 1 -x {0.0 3.0 8 ------- null}
- -t 0.18461 -s 2 -d 3 -p tcp -e 1040 -c 1 -i 26 -a 1 -x {0.0 3.0 6 ------- null}
h -t 0.18461 -s 2 -d 3 -p tcp -e 1040 -c 1 -i 26 -a 1 -x {0.0 3.0 -1 ------- null}
r -t 0.18487 -s 1 -d 2 -p cbr -e 210 -c 2 -i 32 -a 2 -x {1.0 3.1 21 ------- null}
+ -t 0.18487 -s 2 -d 3 -p cbr -e 210 -c 2 -i 32 -a 2 -x {1.0 3.1 21 ------- null}
r -t 0.185916666666667 -s 3 -d 2 -p ack -e 40 -c 1 -i 33 -a 1 -x {3.0 0.0 4 ------- null}
+ -t 0.185916666666667 -s 2 -d 0 -p ack -e 40 -c 1 -i 33 -a 1 -x {3.0 0.0 4 ------- null}
- -t 0.185916666666667 -s 2 -d 0 -p ack -e 40 -c 1 -i 33 -a 1 -x {3.0 0.0 4 ------- null}
h -t 0.185916666666667 -s 2 -d 0 -p ack -e 40 -c 1 -i 33 -a 1 -x {3.0 0.0 -1 ------- null}
+ -t 0.18625 -s 1 -d 2 -p cbr -e 210 -c 2 -i 37 -a 2 -x {1.0 3.1 23 ------- null}
- -t 0.18625 -s 1 -d 2 -p cbr -e 210 -c 2 -i 37 -a 2 -x {1.0 3.1 23 ------- null}
h -t 0.18625 -s 1 -d 2 -p cbr -e 210 -c 2 -i 37 -a 2 -x {1.0 3.1 -1 ------- null}
r -t 0.18849 -s 2 -d 3 -p tcp -e 1040 -c 1 -i 25 -a 1 -x {0.0 3.0 5 ------- null}
+ -t 0.18849 -s 3 -d 2 -p ack -e 40 -c 1 -i 38 -a 1 -x {3.0 0.0 5 ------- null}
- -t 0.18849 -s 3 -d 2 -p ack -e 40 -c 1 -i 38 -a 1 -x {3.0 0.0 5 ------- null}
h -t 0.18849 -s 3 -d 2 -p ack -e 40 -c 1 -i 38 -a 1 -x {3.0 0.0 -1 ------- null}
r -t 0.18862 -s 1 -d 2 -p cbr -e 210 -c 2 -i 34 -a 2 -x {1.0 3.1 22 ------- null}
+ -t 0.18862 -s 2 -d 3 -p cbr -e 210 -c 2 -i 34 -a 2 -x {1.0 3.1 22 ------- null}
r -t 0.18961 -s 2 -d 3 -p cbr -e 210 -c 2 -i 29 -a 2 -x {1.0 3.1 19 ------- null}
+ -t 0.19 -s 1 -d 2 -p cbr -e 210 -c 2 -i 39 -a 2 -x {1.0 3.1 24 ------- null}
- -t 0.19 -s 1 -d 2 -p cbr -e 210 -c 2 -i 39 -a 2 -x {1.0 3.1 24 ------- null}
h -t 0.19 -s 1 -d 2 -p cbr -e 210 -c 2 -i 39 -a 2 -x {1.0 3.1 -1 ------- null}
- -t 0.19001 -s 0 -d 2 -p tcp -e 1040 -c 1 -i 36 -a 1 -x {0.0 3.0 8 ------- null}
h -t 0.19001 -s 0 -d 2 -p tcp -e 1040 -c 1 -i 36 -a 1 -x {0.0 3.0 -1 ------- null}
- -t 0.190156666666667 -s 2 -d 3 -p cbr -e 210 -c 2 -i 31 -a 2 -x {1.0 3.1 20 ------- null}
h -t 0.190156666666667 -s 2 -d 3 -p cbr -e 210 -c 2 -i 31 -a 2 -x {1.0 3.1 -1 ------- null}
r -t 0.19113 -s 2 -d 0 -p ack -e 40 -c 1 -i 33 -a 1 -x {3.0 0.0 4 ------- null}
+ -t 0.19113 -s 0 -d 2 -p tcp -e 1040 -c 1 -i 40 -a 1 -x {0.0 3.0 9 ------- null}
+ -t 0.19113 -s 0 -d 2 -p tcp -e 1040 -c 1 -i 41 -a 1 -x {0.0 3.0 10 ------- null}
- -t 0.191276666666667 -s 2 -d 3 -p cbr -e 210 -c 2 -i 32 -a 2 -x {1.0 3.1 21 ------- null}
h -t 0.191276666666667 -s 2 -d 3 -p cbr -e 210 -c 2 -i 32 -a 2 -x {1.0 3.1 -1 ------- null}
r -t 0.19237 -s 1 -d 2 -p cbr -e 210 -c 2 -i 37 -a 2 -x {1.0 3.1 23 ------- null}
+ -t 0.19237 -s 2 -d 3 -p cbr -e 210 -c 2 -i 37 -a 2 -x {1.0 3.1 23 ------- null}
- -t 0.192396666666667 -s 2 -d 3 -p cbr -e 210 -c 2 -i 34 -a 2 -x {1.0 3.1 22 ------- null}
h -t 0.192396666666667 -s 2 -d 3 -p cbr -e 210 -c 2 -i 34 -a 2 -x {1.0 3.1 -1 ------- null}
- -t 0.193516666666667 -s 2 -d 3 -p cbr -e 210 -c 2 -i 37 -a 2 -x {1.0 3.1 23 ------- null}
h -t 0.193516666666667 -s 2 -d 3 -p cbr -e 210 -c 2 -i 37 -a 2 -x {1.0 3.1 -1 ------- null}
r -t 0.193703333333333 -s 3 -d 2 -p ack -e 40 -c 1 -i 38 -a 1 -x {3.0 0.0 5 ------- null}
+ -t 0.193703333333333 -s 2 -d 0 -p ack -e 40 -c 1 -i 38 -a 1 -x {3.0 0.0 5 ------- null}
- -t 0.193703333333333 -s 2 -d 0 -p ack -e 40 -c 1 -i 38 -a 1 -x {3.0 0.0 5 ------- null}
h -t 0.193703333333333 -s 2 -d 0 -p ack -e 40 -c 1 -i 38 -a 1 -x {3.0 0.0 -1 ------- null}
+ -t 0.19375 -s 1 -d 2 -p cbr -e 210 -c 2 -i 42 -a 2 -x {1.0 3.1 25 ------- null}
- -t 0.19375 -s 1 -d 2 -p cbr -e 210 -c 2 -i 42 -a 2 -x {1.0 3.1 25 ------- null}
h -t 0.19375 -s 1 -d 2 -p cbr -e 210 -c 2 -i 42 -a 2 -x {1.0 3.1 -1 ------- null}
r -t 0.19501 -s 0 -d 2 -p tcp -e 1040 -c 1 -i 35 -a 1 -x {0.0 3.0 7 ------- null}
+ -t 0.19501 -s 2 -d 3 -p tcp -e 1040 -c 1 -i 35 -a 1 -x {0.0 3.0 7 ------- null}
- -t 0.19501 -s 2 -d 3 -p tcp -e 1040 -c 1 -i 35 -a 1 -x {0.0 3.0 7 ------- null}
h -t 0.19501 -s 2 -d 3 -p tcp -e 1040 -c 1 -i 35 -a 1 -x {0.0 3.0 -1 ------- null}
r -t 0.195156666666667 -s 2 -d 3 -p tcp -e 1040 -c 1 -i 26 -a 1 -x {0.0 3.0 6 ------- null}
+ -t 0.195156666666667 -s 3 -d 2 -p ack -e 40 -c 1 -i 43 -a 1 -x {3.0 0.0 6 ------- null}
- -t 0.195156666666667 -s 3 -d 2 -p ack -e 40 -c 1 -i 43 -a 1 -x {3.0 0.0 6 ------- null}
h -t 0.195156666666667 -s 3 -d 2 -p ack -e 40 -c 1 -i 43 -a 1 -x {3.0 0.0 -1 ------- null}
- -t 0.195556666666667 -s 0 -d 2 -p tcp -e 1040 -c 1 -i 40 -a 1 -x {0.0 3.0 9 ------- null}
h -t 0.195556666666667 -s 0 -d 2 -p tcp -e 1040 -c 1 -i 40 -a 1 -x {0.0 3.0 -1 ------- null}
r -t 0.19612 -s 1 -d 2 -p cbr -e 210 -c 2 -i 39 -a 2 -x {1.0 3.1 24 ------- null}
+ -t 0.19612 -s 2 -d 3 -p cbr -e 210 -c 2 -i 39 -a 2 -x {1.0 3.1 24 ------- null}
r -t 0.196276666666667 -s 2 -d 3 -p cbr -e 210 -c 2 -i 31 -a 2 -x {1.0 3.1 20 ------- null}
r -t 0.197396666666667 -s 2 -d 3 -p cbr -e 210 -c 2 -i 32 -a 2 -x {1.0 3.1 21 ------- null}
+ -t 0.1975 -s 1 -d 2 -p cbr -e 210 -c 2 -i 44 -a 2 -x {1.0 3.1 26 ------- null}
- -t 0.1975 -s 1 -d 2 -p cbr -e 210 -c 2 -i 44 -a 2 -x {1.0 3.1 26 ------- null}
h -t 0.1975 -s 1 -d 2 -p cbr -e 210 -c 2 -i 44 -a 2 -x {1.0 3.1 -1 ------- null}
r -t 0.198516666666667 -s 2 -d 3 -p cbr -e 210 -c 2 -i 34 -a 2 -x {1.0 3.1 22 ------- null}
r -t 0.198916666666667 -s 2 -d 0 -p ack -e 40 -c 1 -i 38 -a 1 -x {3.0 0.0 5 ------- null}
+ -t 0.198916666666667 -s 0 -d 2 -p tcp -e 1040 -c 1 -i 45 -a 1 -x {0.0 3.0 11 ------- null}
+ -t 0.198916666666667 -s 0 -d 2 -p tcp -e 1040 -c 1 -i 46 -a 1 -x {0.0 3.0 12 ------- null}
r -t 0.199636666666667 -s 2 -d 3 -p cbr -e 210 -c 2 -i 37 -a 2 -x {1.0 3.1 23 ------- null}
r -t 0.19987 -s 1 -d 2 -p cbr -e 210 -c 2 -i 42 -a 2 -x {1.0 3.1 25 ------- null}
+ -t 0.19987 -s 2 -d 3 -p cbr -e 210 -c 2 -i 42 -a 2 -x {1.0 3.1 25 ------- null}
r -t 0.20037 -s 3 -d 2 -p ack -e 40 -c 1 -i 43 -a 1 -x {3.0 0.0 6 ------- null}
+ -t 0.20037 -s 2 -d 0 -p ack -e 40 -c 1 -i 43 -a 1 -x {3.0 0.0 6 ------- null}
- -t 0.20037 -s 2 -d 0 -p ack -e 40 -c 1 -i 43 -a 1 -x {3.0 0.0 6 ------- null}
h -t 0.20037 -s 2 -d 0 -p ack -e 40 -c 1 -i 43 -a 1 -x {3.0 0.0 -1 ------- null}
r -t 0.200556666666667 -s 0 -d 2 -p tcp -e 1040 -c 1 -i 36 -a 1 -x {0.0 3.0 8 ------- null}
+ -t 0.200556666666667 -s 2 -d 3 -p tcp -e 1040 -c 1 -i 36 -a 1 -x {0.0 3.0 8 ------- null}
- -t 0.200556666666667 -s 2 -d 3 -p cbr -e 210 -c 2 -i 39 -a 2 -x {1.0 3.1 24 ------- null}
h -t 0.200556666666667 -s 2 -d 3 -p cbr -e 210 -c 2 -i 39 -a 2 -x {1.0 3.1 -1 ------- null}
- -t 0.201103333333333 -s 0 -d 2 -p tcp -e 1040 -c 1 -i 41 -a 1 -x {0.0 3.0 10 ------- null}
h -t 0.201103333333333 -s 0 -d 2 -p tcp -e 1040 -c 1 -i 41 -a 1 -x {0.0 3.0 -1 ------- null}
+ -t 0.20125 -s 1 -d 2 -p cbr -e 210 -c 2 -i 47 -a 2 -x {1.0 3.1 27 ------- null}
- -t 0.20125 -s 1 -d 2 -p cbr -e 210 -c 2 -i 47 -a 2 -x {1.0 3.1 27 ------- null}
h -t 0.20125 -s 1 -d 2 -p cbr -e 210 -c 2 -i 47 -a 2 -x {1.0 3.1 -1 ------- null}
- -t 0.201676666666667 -s 2 -d 3 -p cbr -e 210 -c 2 -i 42 -a 2 -x {1.0 3.1 25 ------- null}
h -t 0.201676666666667 -s 2 -d 3 -p cbr -e 210 -c 2 -i 42 -a 2 -x {1.0 3.1 -1 ------- null}
- -t 0.202796666666667 -s 2 -d 3 -p tcp -e 1040 -c 1 -i 36 -a 1 -x {0.0 3.0 8 ------- null}
h -t 0.202796666666667 -s 2 -d 3 -p tcp -e 1040 -c 1 -i 36 -a 1 -x {0.0 3.0 -1 ------- null}
r -t 0.20362 -s 1 -d 2 -p cbr -e 210 -c 2 -i 44 -a 2 -x {1.0 3.1 26 ------- null}
+ -t 0.20362 -s 2 -d 3 -p cbr -e 210 -c 2 -i 44 -a 2 -x {1.0 3.1 26 ------- null}
+ -t 0.205 -s 1 -d 2 -p cbr -e 210 -c 2 -i 48 -a 2 -x {1.0 3.1 28 ------- null}