+ 0.1 1 2 tcp 40 ------- 0 1.0 5.0 0 0
- 0.1 1 2 tcp 40 ------- 0 1.0 5.0 0 0
r 0.105213 1 2 tcp 40 ------- 0 1.0 5.0 0 0
+ 0.105213 2 3 tcp 40 ------- 0 1.0 5.0 0 0
- 0.105213 2 3 tcp 40 ------- 0 1.0 5.0 0 0
r 0.110427 2 3 tcp 40 ------- 0 1.0 5.0 0 0
+ 0.110427 3 5 tcp 40 ------- 0 1.0 5.0 0 0
- 0.110427 3 5 tcp 40 ------- 0 1.0 5.0 0 0
r 0.11564 3 5 tcp 40 ------- 0 1.0 5.0 0 0
+ 0.11564 5 3 ack 40 ------- 0 5.0 1.0 0 1
- 0.11564 5 3 ack 40 ------- 0 5.0 1.0 0 1
r 0.120853 5 3 ack 40 ------- 0 5.0 1.0 0 1
+ 0.120853 3 2 ack 40 ------- 0 5.0 1.0 0 1
- 0.120853 3 2 ack 40 ------- 0 5.0 1.0 0 1
r 0.126067 3 2 ack 40 ------- 0 5.0 1.0 0 1
+ 0.126067 2 1 ack 40 ------- 0 5.0 1.0 0 1
- 0.126067 2 1 ack 40 ------- 0 5.0 1.0 0 1
r 0.13128 2 1 ack 40 ------- 0 5.0 1.0 0 1
+ 0.13128 1 2 tcp 1040 ------- 0 1.0 5.0 1 2
- 0.13128 1 2 tcp 1040 ------- 0 1.0 5.0 1 2
+ 0.13128 1 2 tcp 1040 ------- 0 1.0 5.0 2 3
- 0.136827 1 2 tcp 1040 ------- 0 1.0 5.0 2 3
r 0.141827 1 2 tcp 1040 ------- 0 1.0 5.0 1 2
+ 0.141827 2 3 tcp 1040 ------- 0 1.0 5.0 1 2
- 0.141827 2 3 tcp 1040 ------- 0 1.0 5.0 1 2
r 0.147373 1 2 tcp 1040 ------- 0 1.0 5.0 2 3
+ 0.147373 2 3 tcp 1040 ------- 0 1.0 5.0 2 3
- 0.147373 2 3 tcp 1040 ------- 0 1.0 5.0 2 3
r 0.152373 2 3 tcp 1040 ------- 0 1.0 5.0 1 2
+ 0.152373 3 5 tcp 1040 ------- 0 1.0 5.0 1 2
- 0.152373 3 5 tcp 1040 ------- 0 1.0 5.0 1 2
r 0.15792 2 3 tcp 1040 ------- 0 1.0 5.0 2 3
+ 0.15792 3 5 tcp 1040 ------- 0 1.0 5.0 2 3
- 0.15792 3 5 tcp 1040 ------- 0 1.0 5.0 2 3
r 0.16292 3 5 tcp 1040 ------- 0 1.0 5.0 1 2
+ 0.16292 5 3 ack 40 ------- 0 5.0 1.0 1 4
- 0.16292 5 3 ack 40 ------- 0 5.0 1.0 1 4
r 0.168133 5 3 ack 40 ------- 0 5.0 1.0 1 4
+ 0.168133 3 2 ack 40 ------- 0 5.0 1.0 1 4
- 0.168133 3 2 ack 40 ------- 0 5.0 1.0 1 4
r 0.168467 3 5 tcp 1040 ------- 0 1.0 5.0 2 3
+ 0.168467 5 3 ack 40 ------- 0 5.0 1.0 2 5
- 0.168467 5 3 ack 40 ------- 0 5.0 1.0 2 5
r 0.173347 3 2 ack 40 ------- 0 5.0 1.0 1 4
+ 0.173347 2 1 ack 40 ------- 0 5.0 1.0 1 4
- 0.173347 2 1 ack 40 ------- 0 5.0 1.0 1 4
r 0.17368 5 3 ack 40 ------- 0 5.0 1.0 2 5
+ 0.17368 3 2 ack 40 ------- 0 5.0 1.0 2 5
- 0.17368 3 2 ack 40 ------- 0 5.0 1.0 2 5
r 0.17856 2 1 ack 40 ------- 0 5.0 1.0 1 4
+ 0.17856 1 2 tcp 1040 ------- 0 1.0 5.0 3 6
- 0.17856 1 2 tcp 1040 ------- 0 1.0 5.0 3 6
+ 0.17856 1 2 tcp 1040 ------- 0 1.0 5.0 4 7
r 0.178893 3 2 ack 40 ------- 0 5.0 1.0 2 5
+ 0.178893 2 1 ack 40 ------- 0 5.0 1.0 2 5
- 0.178893 2 1 ack 40 ------- 0 5.0 1.0 2 5
- 0.184107 1 2 tcp 1040 ------- 0 1.0 5.0 4 7
r 0.184107 2 1 ack 40 ------- 0 5.0 1.0 2 5
+ 0.184107 1 2 tcp 1040 ------- 0 1.0 5.0 5 8
+ 0.184107 1 2 tcp 1040 ------- 0 1.0 5.0 6 9
r 0.189107 1 2 tcp 1040 ------- 0 1.0 5.0 3 6
+ 0.189107 2 3 tcp 1040 ------- 0 1.0 5.0 3 6
- 0.189107 2 3 tcp 1040 ------- 0 1.0 5.0 3 6
- 0.189653 1 2 tcp 1040 ------- 0 1.0 5.0 5 8
r 0.194653 1 2 tcp 1040 ------- 0 1.0 5.0 4 7
+ 0.194653 2 3 tcp 1040 ------- 0 1.0 5.0 4 7
- 0.194653 2 3 tcp 1040 ------- 0 1.0 5.0 4 7
- 0.1952 1 2 tcp 1040 ------- 0 1.0 5.0 6 9
r 0.199653 2 3 tcp 1040 ------- 0 1.0 5.0 3 6
+ 0.199653 3 5 tcp 1040 ------- 0 1.0 5.0 3 6
- 0.199653 3 5 tcp 1040 ------- 0 1.0 5.0 3 6
r 0.2002 1 2 tcp 1040 ------- 0 1.0 5.0 5 8
+ 0.2002 2 3 tcp 1040 ------- 0 1.0 5.0 5 8
- 0.2002 2 3 tcp 1040 ------- 0 1.0 5.0 5 8
r 0.2052 2 3 tcp 1040 ------- 0 1.0 5.0 4 7
+ 0.2052 3 5 tcp 1040 ------- 0 1.0 5.0 4 7
- 0.2052 3 5 tcp 1040 ------- 0 1.0 5.0 4 7
r 0.205747 1 2 tcp 1040 ------- 0 1.0 5.0 6 9
+ 0.205747 2 3 tcp 1040 ------- 0 1.0 5.0 6 9
- 0.205747 2 3 tcp 1040 ------- 0 1.0 5.0 6 9
r 0.2102 3 5 tcp 1040 ------- 0 1.0 5.0 3 6
+ 0.2102 5 3 ack 40 ------- 0 5.0 1.0 3 10
- 0.2102 5 3 ack 40 ------- 0 5.0 1.0 3 10
r 0.210747 2 3 tcp 1040 ------- 0 1.0 5.0 5 8
+ 0.210747 3 5 tcp 1040 ------- 0 1.0 5.0 5 8
- 0.210747 3 5 tcp 1040 ------- 0 1.0 5.0 5 8
r 0.215413 5 3 ack 40 ------- 0 5.0 1.0 3 10
+ 0.215413 3 2 ack 40 ------- 0 5.0 1.0 3 10
- 0.215413 3 2 ack 40 ------- 0 5.0 1.0 3 10
r 0.215747 3 5 tcp 1040 ------- 0 1.0 5.0 4 7
+ 0.215747 5 3 ack 40 ------- 0 5.0 1.0 4 11
- 0.215747 5 3 ack 40 ------- 0 5.0 1.0 4 11
r 0.216293 2 3 tcp 1040 ------- 0 1.0 5.0 6 9
+ 0.216293 3 5 tcp 1040 ------- 0 1.0 5.0 6 9
- 0.216293 3 5 tcp 1040 ------- 0 1.0 5.0 6 9
r 0.220627 3 2 ack 40 ------- 0 5.0 1.0 3 10
+ 0.220627 2 1 ack 40 ------- 0 5.0 1.0 3 10
- 0.220627 2 1 ack 40 ------- 0 5.0 1.0 3 10
r 0.22096 5 3 ack 40 ------- 0 5.0 1.0 4 11
+ 0.22096 3 2 ack 40 ------- 0 5.0 1.0 4 11
- 0.22096 3 2 ack 40 ------- 0 5.0 1.0 4 11
r 0.221293 3 5 tcp 1040 ------- 0 1.0 5.0 5 8
+ 0.221293 5 3 ack 40 ------- 0 5.0 1.0 5 12
- 0.221293 5 3 ack 40 ------- 0 5.0 1.0 5 12
r 0.22584 2 1 ack 40 ------- 0 5.0 1.0 3 10
+ 0.22584 1 2 tcp 1040 ------- 0 1.0 5.0 7 13
- 0.22584 1 2 tcp 1040 ------- 0 1.0 5.0 7 13
+ 0.22584 1 2 tcp 1040 ------- 0 1.0 5.0 8 14
r 0.226173 3 2 ack 40 ------- 0 5.0 1.0 4 11
+ 0.226173 2 1 ack 40 ------- 0 5.0 1.0 4 11
- 0.226173 2 1 ack 40 ------- 0 5.0 1.0 4 11
r 0.226507 5 3 ack 40 ------- 0 5.0 1.0 5 12
+ 0.226507 3 2 ack 40 ------- 0 5.0 1.0 5 12
- 0.226507 3 2 ack 40 ------- 0 5.0 1.0 5 12
r 0.22684 3 5 tcp 1040 ------- 0 1.0 5.0 6 9
+ 0.22684 5 3 ack 40 ------- 0 5.0 1.0 6 15
- 0.22684 5 3 ack 40 ------- 0 5.0 1.0 6 15
- 0.231387 1 2 tcp 1040 ------- 0 1.0 5.0 8 14
r 0.231387 2 1 ack 40 ------- 0 5.0 1.0 4 11
+ 0.231387 1 2 tcp 1040 ------- 0 1.0 5.0 9 16
+ 0.231387 1 2 tcp 1040 ------- 0 1.0 5.0 10 17
r 0.23172 3 2 ack 40 ------- 0 5.0 1.0 5 12
+ 0.23172 2 1 ack 40 ------- 0 5.0 1.0 5 12
- 0.23172 2 1 ack 40 ------- 0 5.0 1.0 5 12
r 0.232053 5 3 ack 40 ------- 0 5.0 1.0 6 15
+ 0.232053 3 2 ack 40 ------- 0 5.0 1.0 6 15
- 0.232053 3 2 ack 40 ------- 0 5.0 1.0 6 15
r 0.236387 1 2 tcp 1040 ------- 0 1.0 5.0 7 13
+ 0.236387 2 3 tcp 1040 ------- 0 1.0 5.0 7 13
- 0.236387 2 3 tcp 1040 ------- 0 1.0 5.0 7 13
- 0.236933 1 2 tcp 1040 ------- 0 1.0 5.0 9 16
r 0.236933 2 1 ack 40 ------- 0 5.0 1.0 5 12
+ 0.236933 1 2 tcp 1040 ------- 0 1.0 5.0 11 18
+ 0.236933 1 2 tcp 1040 ------- 0 1.0 5.0 12 19
r 0.237267 3 2 ack 40 ------- 0 5.0 1.0 6 15
+ 0.237267 2 1 ack 40 ------- 0 5.0 1.0 6 15
- 0.237267 2 1 ack 40 ------- 0 5.0 1.0 6 15
r 0.241933 1 2 tcp 1040 ------- 0 1.0 5.0 8 14
+ 0.241933 2 3 tcp 1040 ------- 0 1.0 5.0 8 14
- 0.241933 2 3 tcp 1040 ------- 0 1.0 5.0 8 14
- 0.24248 1 2 tcp 1040 ------- 0 1.0 5.0 10 17
r 0.24248 2 1 ack 40 ------- 0 5.0 1.0 6 15
+ 0.24248 1 2 tcp 1040 ------- 0 1.0 5.0 13 20
+ 0.24248 1 2 tcp 1040 ------- 0 1.0 5.0 14 21
r 0.246933 2 3 tcp 1040 ------- 0 1.0 5.0 7 13
+ 0.246933 3 5 tcp 1040 ------- 0 1.0 5.0 7 13
- 0.246933 3 5 tcp 1040 ------- 0 1.0 5.0 7 13
r 0.24748 1 2 tcp 1040 ------- 0 1.0 5.0 9 16
+ 0.24748 2 3 tcp 1040 ------- 0 1.0 5.0 9 16
- 0.24748 2 3 tcp 1040 ------- 0 1.0 5.0 9 16
- 0.248027 1 2 tcp 1040 ------- 0 1.0 5.0 11 18
r 0.25248 2 3 tcp 1040 ------- 0 1.0 5.0 8 14
+ 0.25248 3 5 tcp 1040 ------- 0 1.0 5.0 8 14
- 0.25248 3 5 tcp 1040 ------- 0 1.0 5.0 8 14
r 0.253027 1 2 tcp 1040 ------- 0 1.0 5.0 10 17
+ 0.253027 2 3 tcp 1040 ------- 0 1.0 5.0 10 17
- 0.253027 2 3 tcp 1040 ------- 0 1.0 5.0 10 17
- 0.253573 1 2 tcp 1040 ------- 0 1.0 5.0 12 19
r 0.25748 3 5 tcp 1040 ------- 0 1.0 5.0 7 13
+ 0.25748 5 3 ack 40 ------- 0 5.0 1.0 7 22
- 0.25748 5 3 ack 40 ------- 0 5.0 1.0 7 22
r 0.258027 2 3 tcp 1040 ------- 0 1.0 5.0 9 16
+ 0.258027 3 5 tcp 1040 ------- 0 1.0 5.0 9 16
- 0.258027 3 5 tcp 1040 ------- 0 1.0 5.0 9 16
r 0.258573 1 2 tcp 1040 ------- 0 1.0 5.0 11 18
+ 0.258573 2 3 tcp 1040 ------- 0 1.0 5.0 11 18
- 0.258573 2 3 tcp 1040 ------- 0 1.0 5.0 11 18
- 0.25912 1 2 tcp 1040 ------- 0 1.0 5.0 13 20
r 0.262693 5 3 ack 40 ------- 0 5.0 1.0 7 22
+ 0.262693 3 2 ack 40 ------- 0 5.0 1.0 7 22
- 0.262693 3 2 ack 40 ------- 0 5.0 1.0 7 22
r 0.263027 3 5 tcp 1040 ------- 0 1.0 5.0 8 14
+ 0.263027 5 3 ack 40 ------- 0 5.0 1.0 8 23
- 0.263027 5 3 ack 40 ------- 0 5.0 1.0 8 23
r 0.263573 2 3 tcp 1040 ------- 0 1.0 5.0 10 17
+ 0.263573 3 5 tcp 1040 ------- 0 1.0 5.0 10 17
- 0.263573 3 5 tcp 1040 ------- 0 1.0 5.0 10 17
r 0.26412 1 2 tcp 1040 ------- 0 1.0 5.0 12 19
+ 0.26412 2 3 tcp 1040 ------- 0 1.0 5.0 12 19
- 0.26412 2 3 tcp 1040 ------- 0 1.0 5.0 12 19
- 0.264667 1 2 tcp 1040 ------- 0 1.0 5.0 14 21
r 0.267907 3 2 ack 40 ------- 0 5.0 1.0 7 22
+ 0.267907 2 1 ack 40 ------- 0 5.0 1.0 7 22
- 0.267907 2 1 ack 40 ------- 0 5.0 1.0 7 22
r 0.26824 5 3 ack 40 ------- 0 5.0 1.0 8 23
+ 0.26824 3 2 ack 40 ------- 0 5.0 1.0 8 23
- 0.26824 3 2 ack 40 ------- 0 5.0 1.0 8 23
r 0.268573 3 5 tcp 1040 ------- 0 1.0 5.0 9 16
+ 0.268573 5 3 ack 40 ------- 0 5.0 1.0 9 24
- 0.268573 5 3 ack 40 ------- 0 5.0 1.0 9 24
r 0.26912 2 3 tcp 1040 ------- 0 1.0 5.0 11 18
+ 0.26912 3 5 tcp 1040 ------- 0 1.0 5.0 11 18
- 0.26912 3 5 tcp 1040 ------- 0 1.0 5.0 11 18
r 0.269667 1 2 tcp 1040 ------- 0 1.0 5.0 13 20
+ 0.269667 2 3 tcp 1040 ------- 0 1.0 5.0 13 20
- 0.269667 2 3 tcp 1040 ------- 0 1.0 5.0 13 20
r 0.27312 2 1 ack 40 ------- 0 5.0 1.0 7 22
+ 0.27312 1 2 tcp 1040 ------- 0 1.0 5.0 15 25
- 0.27312 1 2 tcp 1040 ------- 0 1.0 5.0 15 25
+ 0.27312 1 2 tcp 1040 ------- 0 1.0 5.0 16 26
r 0.273453 3 2 ack 40 ------- 0 5.0 1.0 8 23
+ 0.273453 2 1 ack 40 ------- 0 5.0 1.0 8 23
- 0.273453 2 1 ack 40 ------- 0 5.0 1.0 8 23
r 0.273787 5 3 ack 40 ------- 0 5.0 1.0 9 24
+ 0.273787 3 2 ack 40 ------- 0 5.0 1.0 9 24
- 0.273787 3 2 ack 40 ------- 0 5.0 1.0 9 24
r 0.27412 3 5 tcp 1040 ------- 0 1.0 5.0 10 17
+ 0.27412 5 3 ack 40 ------- 0 5.0 1.0 10 27
- 0.27412 5 3 ack 40 ------- 0 5.0 1.0 10 27
r 0.274667 2 3 tcp 1040 ------- 0 1.0 5.0 12 19
+ 0.274667 3 5 tcp 1040 ------- 0 1.0 5.0 12 19
- 0.274667 3 5 tcp 1040 ------- 0 1.0 5.0 12 19
r 0.275213 1 2 tcp 1040 ------- 0 1.0 5.0 14 21
+ 0.275213 2 3 tcp 1040 ------- 0 1.0 5.0 14 21
- 0.275213 2 3 tcp 1040 ------- 0 1.0 5.0 14 21
- 0.278667 1 2 tcp 1040 ------- 0 1.0 5.0 16 26
r 0.278667 2 1 ack 40 ------- 0 5.0 1.0 8 23
+ 0.278667 1 2 tcp 1040 ------- 0 1.0 5.0 17 28
+ 0.278667 1 2 tcp 1040 ------- 0 1.0 5.0 18 29
r 0.279 3 2 ack 40 ------- 0 5.0 1.0 9 24
+ 0.279 2 1 ack 40 ------- 0 5.0 1.0 9 24
- 0.279 2 1 ack 40 ------- 0 5.0 1.0 9 24
r 0.279333 5 3 ack 40 ------- 0 5.0 1.0 10 27
+ 0.279333 3 2 ack 40 ------- 0 5.0 1.0 10 27
- 0.279333 3 2 ack 40 ------- 0 5.0 1.0 10 27
r 0.279667 3 5 tcp 1040 ------- 0 1.0 5.0 11 18
+ 0.279667 5 3 ack 40 ------- 0 5.0 1.0 11 30
- 0.279667 5 3 ack 40 ------- 0 5.0 1.0 11 30
r 0.280213 2 3 tcp 1040 ------- 0 1.0 5.0 13 20
+ 0.280213 3 5 tcp 1040 ------- 0 1.0 5.0 13 20
- 0.280213 3 5 tcp 1040 ------- 0 1.0 5.0 13 20
r 0.283667 1 2 tcp 1040 ------- 0 1.0 5.0 15 25
+ 0.283667 2 3 tcp 1040 ------- 0 1.0 5.0 15 25
- 0.283667 2 3 tcp 1040 ------- 0 1.0 5.0 15 25
- 0.284213 1 2 tcp 1040 ------- 0 1.0 5.0 17 28
r 0.284213 2 1 ack 40 ------- 0 5.0 1.0 9 24
+ 0.284213 1 2 tcp 1040 ------- 0 1.0 5.0 19 31
+ 0.284213 1 2 tcp 1040 ------- 0 1.0 5.0 20 32
r 0.284547 3 2 ack 40 ------- 0 5.0 1.0 10 27
+ 0.284547 2 1 ack 40 ------- 0 5.0 1.0 10 27
- 0.284547 2 1 ack 40 ------- 0 5.0 1.0 10 27
r 0.28488 5 3 ack 40 ------- 0 5.0 1.0 11 30
+ 0.28488 3 2 ack 40 ------- 0 5.0 1.0 11 30
- 0.28488 3 2 ack 40 ------- 0 5.0 1.0 11 30
r 0.285213 3 5 tcp 1040 ------- 0 1.0 5.0 12 19
+ 0.285213 5 3 ack 40 ------- 0 5.0 1.0 12 33
- 0.285213 5 3 ack 40 ------- 0 5.0 1.0 12 33
r 0.28576 2 3 tcp 1040 ------- 0 1.0 5.0 14 21
+ 0.28576 3 5 tcp 1040 ------- 0 1.0 5.0 14 21
- 0.28576 3 5 tcp 1040 ------- 0 1.0 5.0 14 21
r 0.289213 1 2 tcp 1040 ------- 0 1.0 5.0 16 26
+ 0.289213 2 3 tcp 1040 ------- 0 1.0 5.0 16 26
- 0.289213 2 3 tcp 1040 ------- 0 1.0 5.0 16 26
- 0.28976 1 2 tcp 1040 ------- 0 1.0 5.0 18 29
r 0.28976 2 1 ack 40 ------- 0 5.0 1.0 10 27
+ 0.28976 1 2 tcp 1040 ------- 0 1.0 5.0 21 34
+ 0.28976 1 2 tcp 1040 ------- 0 1.0 5.0 22 35
r 0.290093 3 2 ack 40 ------- 0 5.0 1.0 11 30
+ 0.290093 2 1 ack 40 ------- 0 5.0 1.0 11 30
- 0.290093 2 1 ack 40 ------- 0 5.0 1.0 11 30
r 0.290427 5 3 ack 40 ------- 0 5.0 1.0 12 33
+ 0.290427 3 2 ack 40 ------- 0 5.0 1.0 12 33
- 0.290427 3 2 ack 40 ------- 0 5.0 1.0 12 33
r 0.29076 3 5 tcp 1040 ------- 0 1.0 5.0 13 20
+ 0.29076 5 3 ack 40 ------- 0 5.0 1.0 13 36
- 0.29076 5 3 ack 40 ------- 0 5.0 1.0 13 36
r 0.294213 2 3 tcp 1040 ------- 0 1.0 5.0 15 25
+ 0.294213 3 5 tcp 1040 ------- 0 1.0 5.0 15 25
- 0.294213 3 5 tcp 1040 ------- 0 1.0 5.0 15 25
r 0.29476 1 2 tcp 1040 ------- 0 1.0 5.0 17 28
+ 0.29476 2 3 tcp 1040 ------- 0 1.0 5.0 17 28
- 0.29476 2 3 tcp 1040 ------- 0 1.0 5.0 17 28
- 0.295307 1 2 tcp 1040 ------- 0 1.0 5.0 19 31
r 0.295307 2 1 ack 40 ------- 0 5.0 1.0 11 30
+ 0.295307 1 2 tcp 1040 ------- 0 1.0 5.0 23 37
+ 0.295307 1 2 tcp 1040 ------- 0 1.0 5.0 24 38
r 0.29564 3 2 ack 40 ------- 0 5.0 1.0 12 33
+ 0.29564 2 1 ack 40 ------- 0 5.0 1.0 12 33
- 0.29564 2 1 ack 40 ------- 0 5.0 1.0 12 33
r 0.295973 5 3 ack 40 ------- 0 5.0 1.0 13 36
+ 0.295973 3 2 ack 40 ------- 0 5.0 1.0 13 36
- 0.295973 3 2 ack 40 ------- 0 5.0 1.0 13 36
r 0.296307 3 5 tcp 1040 ------- 0 1.0 5.0 14 21
+ 0.296307 5 3 ack 40 ------- 0 5.0 1.0 14 39
- 0.296307 5 3 ack 40 ------- 0 5.0 1.0 14 39
r 0.29976 2 3 tcp 1040 ------- 0 1.0 5.0 16 26
+ 0.29976 3 5 tcp 1040 ------- 0 1.0 5.0 16 26
- 0.29976 3 5 tcp 1040 ------- 0 1.0 5.0 16 26
r 0.300307 1 2 tcp 1040 ------- 0 1.0 5.0 18 29
+ 0.300307 2 3 tcp 1040 ------- 0 1.0 5.0 18 29
- 0.300307 2 3 tcp 1040 ------- 0 1.0 5.0 18 29
- 0.300853 1 2 tcp 1040 ------- 0 1.0 5.0 20 32
r 0.300853 2 1 ack 40 ------- 0 5.0 1.0 12 33
+ 0.300853 1 2 tcp 1040 ------- 0 1.0 5.0 25 40
+ 0.300853 1 2 tcp 1040 ------- 0 1.0 5.0 26 41
r 0.301187 3 2 ack 40 ------- 0 5.0 1.0 13 36
+ 0.301187 2 1 ack 40 ------- 0 5.0 1.0 13 36
- 0.301187 2 1 ack 40 ------- 0 5.0 1.0 13 36
r 0.30152 5 3 ack 40 ------- 0 5.0 1.0 14 39
+ 0.30152 3 2 ack 40 ------- 0 5.0 1.0 14 39
- 0.30152 3 2 ack 40 ------- 0 5.0 1.0 14 39
r 0.30476 3 5 tcp 1040 ------- 0 1.0 5.0 15 25
+ 0.30476 5 3 ack 40 ------- 0 5.0 1.0 15 42
- 0.30476 5 3 ack 40 ------- 0 5.0 1.0 15 42
r 0.305307 2 3 tcp 1040 ------- 0 1.0 5.0 17 28
+ 0.305307 3 5 tcp 1040 ------- 0 1.0 5.0 17 28
- 0.305307 3 5 tcp 1040 ------- 0 1.0 5.0 17 28
r 0.305853 1 2 tcp 1040 ------- 0 1.0 5.0 19 31
+ 0.305853 2 3 tcp 1040 ------- 0 1.0 5.0 19 31
- 0.305853 2 3 tcp 1040 ------- 0 1.0 5.0 19 31
- 0.3064 1 2 tcp 1040 ------- 0 1.0 5.0 21 34
r 0.3064 2 1 ack 40 ------- 0 5.0 1.0 13 36
+ 0.3064 1 2 tcp 1040 ------- 0 1.0 5.0 27 43
+ 0.3064 1 2 tcp 1040 ------- 0 1.0 5.0 28 44
r 0.306733 3 2 ack 40 ------- 0 5.0 1.0 14 39
+ 0.306733 2 1 ack 40 ------- 0 5.0 1.0 14 39
- 0.306733 2 1 ack 40 ------- 0 5.0 1.0 14 39
r 0.309973 5 3 ack 40 ------- 0 5.0 1.0 15 42
+ 0.309973 3 2 ack 40 ------- 0 5.0 1.0 15 42
- 0.309973 3 2 ack 40 ------- 0 5.0 1.0 15 42
r 0.310307 3 5 tcp 1040 ------- 0 1.0 5.0 16 26
+ 0.310307 5 3 ack 40 ------- 0 5.0 1.0 16 45
- 0.310307 5 3 ack 40 ------- 0 5.0 1.0 16 45
r 0.310853 2 3 tcp 1040 ------- 0 1.0 5.0 18 29
+ 0.310853 3 5 tcp 1040 ------- 0 1.0 5.0 18 29
- 0.310853 3 5 tcp 1040 ------- 0 1.0 5.0 18 29
r 0.3114 1 2 tcp 1040 ------- 0 1.0 5.0 20 32
+ 0.3114 2 3 tcp 1040 ------- 0 1.0 5.0 20 32
- 0.3114 2 3 tcp 1040 ------- 0 1.0 5.0 20 32
- 0.311947 1 2 tcp 1040 ------- 0 1.0 5.0 22 35
r 0.311947 2 1 ack 40 ------- 0 5.0 1.0 14 39
+ 0.311947 1 2 tcp 1040 ------- 0 1.0 5.0 29 46
+ 0.311947 1 2 tcp 1040 ------- 0 1.0 5.0 30 47
r 0.315187 3 2 ack 40 ------- 0 5.0 1.0 15 42
+ 0.315187 2 1 ack 40 ------- 0 5.0 1.0 15 42
- 0.315187 2 1 ack 40 ------- 0 5.0 1.0 15 42
r 0.31552 5 3 ack 40 ------- 0 5.0 1.0 16 45
+ 0.31552 3 2 ack 40 ------- 0 5.0 1.0 16 45
- 0.31552 3 2 ack 40 ------- 0 5.0 1.0 16 45
r 0.315853 3 5 tcp 1040 ------- 0 1.0 5.0 17 28
+ 0.315853 5 3 ack 40 ------- 0 5.0 1.0 17 48
- 0.315853 5 3 ack 40 ------- 0 5.0 1.0 17 48
r 0.3164 2 3 tcp 1040 ------- 0 1.0 5.0 19 31
+ 0.3164 3 5 tcp 1040 ------- 0 1.0 5.0 19 31
- 0.3164 3 5 tcp 1040 ------- 0 1.0 5.0 19 31
r 0.316947 1 2 tcp 1040 ------- 0 1.0 5.0 21 34
+ 0.316947 2 3 tcp 1040 ------- 0 1.0 5.0 21 34
- 0.316947 2 3 tcp 1040 ------- 0 1.0 5.0 21 34
- 0.317493 1 2 tcp 1040 ------- 0 1.0 5.0 23 37
r 0.3204 2 1 ack 40 ------- 0 5.0 1.0 15 42
+ 0.3204 1 2 tcp 1040 ------- 0 1.0 5.0 31 49
+ 0.3204 1 2 tcp 1040 ------- 0 1.0 5.0 32 50
r 0.320733 3 2 ack 40 ------- 0 5.0 1.0 16 45
+ 0.320733 2 1 ack 40 ------- 0 5.0 1.0 16 45
- 0.320733 2 1 ack 40 ------- 0 5.0 1.0 16 45
r 0.321067 5 3 ack 40 ------- 0 5.0 1.0 17 48
+ 0.321067 3 2 ack 40 ------- 0 5.0 1.0 17 48
- 0.321067 3 2 ack 40 ------- 0 5.0 1.0 17 48
r 0.3214 3 5 tcp 1040 ------- 0 1.0 5.0 18 29
+ 0.3214 5 3 ack 40 ------- 0 5.0 1.0 18 51
- 0.3214 5 3 ack 40 ------- 0 5.0 1.0 18 51
r 0.321947 2 3 tcp 1040 ------- 0 1.0 5.0 20 32
+ 0.321947 3 5 tcp 1040 ------- 0 1.0 5.0 20 32
- 0.321947 3 5 tcp 1040 ------- 0 1.0 5.0 20 32
r 0.322493 1 2 tcp 1040 ------- 0 1.0 5.0 22 35
+ 0.322493 2 3 tcp 1040 ------- 0 1.0 5.0 22 35
- 0.322493 2 3 tcp 1040 ------- 0 1.0 5.0 22 35
- 0.32304 1 2 tcp 1040 ------- 0 1.0 5.0 24 38
r 0.325947 2 1 ack 40 ------- 0 5.0 1.0 16 45
+ 0.325947 1 2 tcp 1040 ------- 0 1.0 5.0 33 52
+ 0.325947 1 2 tcp 1040 ------- 0 1.0 5.0 34 53
r 0.32628 3 2 ack 40 ------- 0 5.0 1.0 17 48
+ 0.32628 2 1 ack 40 ------- 0 5.0 1.0 17 48
- 0.32628 2 1 ack 40 ------- 0 5.0 1.0 17 48
r 0.326613 5 3 ack 40 ------- 0 5.0 1.0 18 51
+ 0.326613 3 2 ack 40 ------- 0 5.0 1.0 18 51
- 0.326613 3 2 ack 40 ------- 0 5.0 1.0 18 51
r 0.326947 3 5 tcp 1040 ------- 0 1.0 5.0 19 31
+ 0.326947 5 3 ack 40 ------- 0 5.0 1.0 19 54
- 0.326947 5 3 ack 40 ------- 0 5.0 1.0 19 54
r 0.327493 2 3 tcp 1040 ------- 0 1.0 5.0 21 34
+ 0.327493 3 5 tcp 1040 ------- 0 1.0 5.0 21 34
- 0.327493 3 5 tcp 1040 ------- 0 1.0 5.0 21 34
r 0.32804 1 2 tcp 1040 ------- 0 1.0 5.0 23 37
+ 0.32804 2 3 tcp 1040 ------- 0 1.0 5.0 23 37
- 0.32804 2 3 tcp 1040 ------- 0 1.0 5.0 23 37
- 0.328587 1 2 tcp 1040 ------- 0 1.0 5.0 25 40
r 0.331493 2 1 ack 40 ------- 0 5.0 1.0 17 48
+ 0.331493 1 2 tcp 1040 ------- 0 1.0 5.0 35 55
+ 0.331493 1 2 tcp 1040 ------- 0 1.0 5.0 36 56
r 0.331827 3 2 ack 40 ------- 0 5.0 1.0 18 51
+ 0.331827 2 1 ack 40 ------- 0 5.0 1.0 18 51
- 0.331827 2 1 ack 40 ------- 0 5.0 1.0 18 51
r 0.33216 5 3 ack 40 ------- 0 5.0 1.0 19 54
+ 0.33216 3 2 ack 40 ------- 0 5.0 1.0 19 54
- 0.33216 3 2 ack 40 ------- 0 5.0 1.0 19 54
r 0.332493 3 5 tcp 1040 ------- 0 1.0 5.0 20 32
+ 0.332493 5 3 ack 40 ------- 0 5.0 1.0 20 57
- 0.332493 5 3 ack 40 ------- 0 5.0 1.0 20 57
r 0.33304 2 3 tcp 1040 ------- 0 1.0 5.0 22 35
+ 0.33304 3 5 tcp 1040 ------- 0 1.0 5.0 22 35
- 0.33304 3 5 tcp 1040 ------- 0 1.0 5.0 22 35
r 0.333587 1 2 tcp 1040 ------- 0 1.0 5.0 24 38
+ 0.333587 2 3 tcp 1040 ------- 0 1.0 5.0 24 38
- 0.333587 2 3 tcp 1040 ------- 0 1.0 5.0 24 38
- 0.334133 1 2 tcp 1040 ------- 0 1.0 5.0 26 41
r 0.33704 2 1 ack 40 ------- 0 5.0 1.0 18 51
+ 0.33704 1 2 tcp 1040 ------- 0 1.0 5.0 37 58
+ 0.33704 1 2 tcp 1040 ------- 0 1.0 5.0 38 59
r 0.337373 3 2 ack 40 ------- 0 5.0 1.0 19 54
+ 0.337373 2 1 ack 40 ------- 0 5.0 1.0 19 54
- 0.337373 2 1 ack 40 ------- 0 5.0 1.0 19 54
r 0.337707 5 3 ack 40 ------- 0 5.0 1.0 20 57
+ 0.337707 3 2 ack 40 ------- 0 5.0 1.0 20 57
- 0.337707 3 2 ack 40 ------- 0 5.0 1.0 20 57
r 0.33804 3 5 tcp 1040 ------- 0 1.0 5.0 21 34
+ 0.33804 5 3 ack 40 ------- 0 5.0 1.0 21 60
- 0.33804 5 3 ack 40 ------- 0 5.0 1.0 21 60
r 0.338587 2 3 tcp 1040 ------- 0 1.0 5.0 23 37
+ 0.338587 3 5 tcp 1040 ------- 0 1.0 5.0 23 37
- 0.338587 3 5 tcp 1040 ------- 0 1.0 5.0 23 37
r 0.339133 1 2 tcp 1040 ------- 0 1.0 5.0 25 40
+ 0.339133 2 3 tcp 1040 ------- 0 1.0 5.0 25 40
- 0.339133 2 3 tcp 1040 ------- 0 1.0 5.0 25 40
- 0.33968 1 2 tcp 1040 ------- 0 1.0 5.0 27 43
r 0.342587 2 1 ack 40 ------- 0 5.0 1.0 19 54
+ 0.342587 1 2 tcp 1040 ------- 0 1.0 5.0 39 61
r 0.34292 3 2 ack 40 ------- 0 5.0 1.0 20 57
+ 0.34292 2 1 ack 40 ------- 0 5.0 1.0 20 57
- 0.34292 2 1 ack 40 ------- 0 5.0 1.0 20 57
r 0.343253 5 3 ack 40 ------- 0 5.0 1.0 21 60
+ 0.343253 3 2 ack 40 ------- 0 5.0 1.0 21 60
- 0.343253 3 2 ack 40 ------- 0 5.0 1.0 21 60
r 0.343587 3 5 tcp 1040 ------- 0 1.0 5.0 22 35
+ 0.343587 5 3 ack 40 ------- 0 5.0 1.0 22 62
- 0.343587 5 3 ack 40 ------- 0 5.0 1.0 22 62
r 0.344133 2 3 tcp 1040 ------- 0 1.0 5.0 24 38
+ 0.344133 3 5 tcp 1040 ------- 0 1.0 5.0 24 38
- 0.344133 3 5 tcp 1040 ------- 0 1.0 5.0 24 38
r 0.34468 1 2 tcp 1040 ------- 0 1.0 5.0 26 41
+ 0.34468 2 3 tcp 1040 ------- 0 1.0 5.0 26 41
- 0.34468 2 3 tcp 1040 ------- 0 1.0 5.0 26 41
- 0.345227 1 2 tcp 1040 ------- 0 1.0 5.0 28 44
r 0.348133 2 1 ack 40 ------- 0 5.0 1.0 20 57
+ 0.348133 1 2 tcp 1040 ------- 0 1.0 5.0 40 63
r 0.348467 3 2 ack 40 ------- 0 5.0 1.0 21 60
+ 0.348467 2 1 ack 40 ------- 0 5.0 1.0 21 60
- 0.348467 2 1 ack 40 ------- 0 5.0 1.0 21 60
r 0.3488 5 3 ack 40 ------- 0 5.0 1.0 22 62
+ 0.3488 3 2 ack 40 ------- 0 5.0 1.0 22 62
- 0.3488 3 2 ack 40 ------- 0 5.0 1.0 22 62
r 0.349133 3 5 tcp 1040 ------- 0 1.0 5.0 23 37
+ 0.349133 5 3 ack 40 ------- 0 5.0 1.0 23 64
- 0.349133 5 3 ack 40 ------- 0 5.0 1.0 23 64
r 0.34968 2 3 tcp 1040 ------- 0 1.0 5.0 25 40
+ 0.34968 3 5 tcp 1040 ------- 0 1.0 5.0 25 40
- 0.34968 3 5 tcp 1040 ------- 0 1.0 5.0 25 40
r 0.350227 1 2 tcp 1040 ------- 0 1.0 5.0 27 43
+ 0.350227 2 3 tcp 1040 ------- 0 1.0 5.0 27 43
- 0.350227 2 3 tcp 1040 ------- 0 1.0 5.0 27 43
- 0.350773 1 2 tcp 1040 ------- 0 1.0 5.0 29 46
r 0.35368 2 1 ack 40 ------- 0 5.0 1.0 21 60
+ 0.35368 1 2 tcp 1040 ------- 0 1.0 5.0 41 65
r 0.354013 3 2 ack 40 ------- 0 5.0 1.0 22 62
+ 0.354013 2 1 ack 40 ------- 0 5.0 1.0 22 62
- 0.354013 2 1 ack 40 ------- 0 5.0 1.0 22 62
r 0.354347 5 3 ack 40 ------- 0 5.0 1.0 23 64
+ 0.354347 3 2 ack 40 ------- 0 5.0 1.0 23 64
- 0.354347 3 2 ack 40 ------- 0 5.0 1.0 23 64
r 0.35468 3 5 tcp 1040 ------- 0 1.0 5.0 24 38
+ 0.35468 5 3 ack 40 ------- 0 5.0 1.0 24 66
- 0.35468 5 3 ack 40 ------- 0 5.0 1.0 24 66
r 0.355227 2 3 tcp 1040 ------- 0 1.0 5.0 26 41
+ 0.355227 3 5 tcp 1040 ------- 0 1.0 5.0 26 41
- 0.355227 3 5 tcp 1040 ------- 0 1.0 5.0 26 41
r 0.355773 1 2 tcp 1040 ------- 0 1.0 5.0 28 44
+ 0.355773 2 3 tcp 1040 ------- 0 1.0 5.0 28 44
- 0.355773 2 3 tcp 1040 ------- 0 1.0 5.0 28 44
- 0.35632 1 2 tcp 1040 ------- 0 1.0 5.0 30 47
r 0.359227 2 1 ack 40 ------- 0 5.0 1.0 22 62
+ 0.359227 1 2 tcp 1040 ------- 0 1.0 5.0 42 67
r 0.35956 3 2 ack 40 ------- 0 5.0 1.0 23 64
+ 0.35956 2 1 ack 40 ------- 0 5.0 1.0 23 64
- 0.35956 2 1 ack 40 ------- 0 5.0 1.0 23 64
r 0.359893 5 3 ack 40 ------- 0 5.0 1.0 24 66
+ 0.359893 3 2 ack 40 ------- 0 5.0 1.0 24 66
- 0.359893 3 2 ack 40 ------- 0 5.0 1.0 24 66
r 0.360227 3 5 tcp 1040 ------- 0 1.0 5.0 25 40
+ 0.360227 5 3 ack 40 ------- 0 5.0 1.0 25 68
- 0.360227 5 3 ack 40 ------- 0 5.0 1.0 25 68
r 0.360773 2 3 tcp 1040 ------- 0 1.0 5.0 27 43
+ 0.360773 3 5 tcp 1040 ------- 0 1.0 5.0 27 43
- 0.360773 3 5 tcp 1040 ------- 0 1.0 5.0 27 43
r 0.36132 1 2 tcp 1040 ------- 0 1.0 5.0 29 46
+ 0.36132 2 3 tcp 1040 ------- 0 1.0 5.0 29 46
- 0.36132 2 3 tcp 1040 ------- 0 1.0 5.0 29 46
- 0.361867 1 2 tcp 1040 ------- 0 1.0 5.0 31 49
r 0.364773 2 1 ack 40 ------- 0 5.0 1.0 23 64
+ 0.364773 1 2 tcp 1040 ------- 0 1.0 5.0 43 69
r 0.365107 3 2 ack 40 ------- 0 5.0 1.0 24 66
+ 0.365107 2 1 ack 40 ------- 0 5.0 1.0 24 66
- 0.365107 2 1 ack 40 ------- 0 5.0 1.0 24 66
r 0.36544 5 3 ack 40 ------- 0 5.0 1.0 25 68
+ 0.36544 3 2 ack 40 ------- 0 5.0 1.0 25 68
- 0.36544 3 2 ack 40 ------- 0 5.0 1.0 25 68
r 0.365773 3 5 tcp 1040 ------- 0 1.0 5.0 26 41
+ 0.365773 5 3 ack 40 ------- 0 5.0 1.0 26 70
- 0.365773 5 3 ack 40 ------- 0 5.0 1.0 26 70
r 0.36632 2 3 tcp 1040 ------- 0 1.0 5.0 28 44
+ 0.36632 3 5 tcp 1040 ------- 0 1.0 5.0 28 44
- 0.36632 3 5 tcp 1040 ------- 0 1.0 5.0 28 44
r 0.366867 1 2 tcp 1040 ------- 0 1.0 5.0 30 47
+ 0.366867 2 3 tcp 1040 ------- 0 1.0 5.0 30 47
- 0.366867 2 3 tcp 1040 ------- 0 1.0 5.0 30 47
- 0.367413 1 2 tcp 1040 ------- 0 1.0 5.0 32 50
r 0.37032 2 1 ack 40 ------- 0 5.0 1.0 24 66
+ 0.37032 1 2 tcp 1040 ------- 0 1.0 5.0 44 71
r 0.370653 3 2 ack 40 ------- 0 5.0 1.0 25 68
+ 0.370653 2 1 ack 40 ------- 0 5.0 1.0 25 68
- 0.370653 2 1 ack 40 ------- 0 5.0 1.0 25 68
r 0.370987 5 3 ack 40 ------- 0 5.0 1.0 26 70
+ 0.370987 3 2 ack 40 ------- 0 5.0 1.0 26 70
- 0.370987 3 2 ack 40 ------- 0 5.0 1.0 26 70
r 0.37132 3 5 tcp 1040 ------- 0 1.0 5.0 27 43
+ 0.37132 5 3 ack 40 ------- 0 5.0 1.0 27 72
- 0.37132 5 3 ack 40 ------- 0 5.0 1.0 27 72
r 0.371867 2 3 tcp 1040 ------- 0 1.0 5.0 29 46
+ 0.371867 3 5 tcp 1040 ------- 0 1.0 5.0 29 46
- 0.371867 3 5 tcp 1040 ------- 0 1.0 5.0 29 46
r 0.372413 1 2 tcp 1040 ------- 0 1.0 5.0 31 49
+ 0.372413 2 3 tcp 1040 ------- 0 1.0 5.0 31 49
- 0.372413 2 3 tcp 1040 ------- 0 1.0 5.0 31 49
- 0.37296 1 2 tcp 1040 ------- 0 1.0 5.0 33 52
r 0.375867 2 1 ack 40 ------- 0 5.0 1.0 25 68
+ 0.375867 1 2 tcp 1040 ------- 0 1.0 5.0 45 73
r 0.3762 3 2 ack 40 ------- 0 5.0 1.0 26 70
+ 0.3762 2 1 ack 40 ------- 0 5.0 1.0 26 70
- 0.3762 2 1 ack 40 ------- 0 5.0 1.0 26 70
r 0.376533 5 3 ack 40 ------- 0 5.0 1.0 27 72
+ 0.376533 3 2 ack 40 ------- 0 5.0 1.0 27 72
- 0.376533 3 2 ack 40 ------- 0 5.0 1.0 27 72
r 0.376867 3 5 tcp 1040 ------- 0 1.0 5.0 28 44
+ 0.376867 5 3 ack 40 ------- 0 5.0 1.0 28 74
- 0.376867 5 3 ack 40 ------- 0 5.0 1.0 28 74
r 0.377413 2 3 tcp 1040 ------- 0 1.0 5.0 30 47
+ 0.377413 3 5 tcp 1040 ------- 0 1.0 5.0 30 47
- 0.377413 3 5 tcp 1040 ------- 0 1.0 5.0 30 47
r 0.37796 1 2 tcp 1040 ------- 0 1.0 5.0 32 50
+ 0.37796 2 3 tcp 1040 ------- 0 1.0 5.0 32 50
- 0.37796 2 3 tcp 1040 ------- 0 1.0 5.0 32 50
- 0.378507 1 2 tcp 1040 ------- 0 1.0 5.0 34 53
r 0.381413 2 1 ack 40 ------- 0 5.0 1.0 26 70
+ 0.381413 1 2 tcp 1040 ------- 0 1.0 5.0 46 75
r 0.381747 3 2 ack 40 ------- 0 5.0 1.0 27 72
+ 0.381747 2 1 ack 40 ------- 0 5.0 1.0 27 72
- 0.381747 2 1 ack 40 ------- 0 5.0 1.0 27 72
r 0.38208 5 3 ack 40 ------- 0 5.0 1.0 28 74
+ 0.38208 3 2 ack 40 ------- 0 5.0 1.0 28 74
- 0.38208 3 2 ack 40 ------- 0 5.0 1.0 28 74
r 0.382413 3 5 tcp 1040 ------- 0 1.0 5.0 29 46
+ 0.382413 5 3 ack 40 ------- 0 5.0 1.0 29 76
- 0.382413 5 3 ack 40 ------- 0 5.0 1.0 29 76
r 0.38296 2 3 tcp 1040 ------- 0 1.0 5.0 31 49
+ 0.38296 3 5 tcp 1040 ------- 0 1.0 5.0 31 49
- 0.38296 3 5 tcp 1040 ------- 0 1.0 5.0 31 49
r 0.383507 1 2 tcp 1040 ------- 0 1.0 5.0 33 52
+ 0.383507 2 3 tcp 1040 ------- 0 1.0 5.0 33 52
- 0.383507 2 3 tcp 1040 ------- 0 1.0 5.0 33 52
- 0.384053 1 2 tcp 1040 ------- 0 1.0 5.0 35 55
r 0.38696 2 1 ack 40 ------- 0 5.0 1.0 27 72
+ 0.38696 1 2 tcp 1040 ------- 0 1.0 5.0 47 77
r 0.387293 3 2 ack 40 ------- 0 5.0 1.0 28 74
+ 0.387293 2 1 ack 40 ------- 0 5.0 1.0 28 74
- 0.387293 2 1 ack 40 ------- 0 5.0 1.0 28 74
r 0.387627 5 3 ack 40 ------- 0 5.0 1.0 29 76
+ 0.387627 3 2 ack 40 ------- 0 5.0 1.0 29 76
- 0.387627 3 2 ack 40 ------- 0 5.0 1.0 29 76
r 0.38796 3 5 tcp 1040 ------- 0 1.0 5.0 30 47
+ 0.38796 5 3 ack 40 ------- 0 5.0 1.0 30 78
- 0.38796 5 3 ack 40 ------- 0 5.0 1.0 30 78
r 0.388507 2 3 tcp 1040 ------- 0 1.0 5.0 32 50
+ 0.388507 3 5 tcp 1040 ------- 0 1.0 5.0 32 50
- 0.388507 3 5 tcp 1040 ------- 0 1.0 5.0 32 50
r 0.389053 1 2 tcp 1040 ------- 0 1.0 5.0 34 53
+ 0.389053 2 3 tcp 1040 ------- 0 1.0 5.0 34 53
- 0.389053 2 3 tcp 1040 ------- 0 1.0 5.0 34 53
- 0.3896 1 2 tcp 1040 ------- 0 1.0 5.0 36 56
r 0.392507 2 1 ack 40 ------- 0 5.0 1.0 28 74
+ 0.392507 1 2 tcp 1040 ------- 0 1.0 5.0 48 79
r 0.39284 3 2 ack 40 ------- 0 5.0 1.0 29 76
+ 0.39284 2 1 ack 40 ------- 0 5.0 1.0 29 76
- 0.39284 2 1 ack 40 ------- 0 5.0 1.0 29 76
r 0.393173 5 3 ack 40 ------- 0 5.0 1.0 30 78
+ 0.393173 3 2 ack 40 ------- 0 5.0 1.0 30 78
- 0.393173 3 2 ack 40 ------- 0 5.0 1.0 30 78
r 0.393507 3 5 tcp 1040 ------- 0 1.0 5.0 31 49
+ 0.393507 5 3 ack 40 ------- 0 5.0 1.0 31 80
- 0.393507 5 3 ack 40 ------- 0 5.0 1.0 31 80
r 0.394053 2 3 tcp 1040 ------- 0 1.0 5.0 33 52
+ 0.394053 3 5 tcp 1040 ------- 0 1.0 5.0 33 52
- 0.394053 3 5 tcp 1040 ------- 0 1.0 5.0 33 52
r 0.3946 1 2 tcp 1040 ------- 0 1.0 5.0 35 55
+ 0.3946 2 3 tcp 1040 ------- 0 1.0 5.0 35 55
- 0.3946 2 3 tcp 1040 ------- 0 1.0 5.0 35 55
- 0.395147 1 2 tcp 1040 ------- 0 1.0 5.0 37 58
r 0.398053 2 1 ack 40 ------- 0 5.0 1.0 29 76
+ 0.398053 1 2 tcp 1040 ------- 0 1.0 5.0 49 81
r 0.398387 3 2 ack 40 ------- 0 5.0 1.0 30 78
+ 0.398387 2 1 ack 40 ------- 0 5.0 1.0 30 78
- 0.398387 2 1 ack 40 ------- 0 5.0 1.0 30 78
r 0.39872 5 3 ack 40 ------- 0 5.0 1.0 31 80
+ 0.39872 3 2 ack 40 ------- 0 5.0 1.0 31 80
- 0.39872 3 2 ack 40 ------- 0 5.0 1.0 31 80
r 0.399053 3 5 tcp 1040 ------- 0 1.0 5.0 32 50
+ 0.399053 5 3 ack 40 ------- 0 5.0 1.0 32 82
- 0.399053 5 3 ack 40 ------- 0 5.0 1.0 32 82
r 0.3996 2 3 tcp 1040 ------- 0 1.0 5.0 34 53
+ 0.3996 3 5 tcp 1040 ------- 0 1.0 5.0 34 53
- 0.3996 3 5 tcp 1040 ------- 0 1.0 5.0 34 53
r 0.400147 1 2 tcp 1040 ------- 0 1.0 5.0 36 56
+ 0.400147 2 3 tcp 1040 ------- 0 1.0 5.0 36 56
- 0.400147 2 3 tcp 1040 ------- 0 1.0 5.0 36 56
- 0.400693 1 2 tcp 1040 ------- 0 1.0 5.0 38 59
r 0.4036 2 1 ack 40 ------- 0 5.0 1.0 30 78
+ 0.4036 1 2 tcp 1040 ------- 0 1.0 5.0 50 83
r 0.403933 3 2 ack 40 ------- 0 5.0 1.0 31 80
+ 0.403933 2 1 ack 40 ------- 0 5.0 1.0 31 80
- 0.403933 2 1 ack 40 ------- 0 5.0 1.0 31 80
r 0.404267 5 3 ack 40 ------- 0 5.0 1.0 32 82
+ 0.404267 3 2 ack 40 ------- 0 5.0 1.0 32 82
- 0.404267 3 2 ack 40 ------- 0 5.0 1.0 32 82
r 0.4046 3 5 tcp 1040 ------- 0 1.0 5.0 33 52
+ 0.4046 5 3 ack 40 ------- 0 5.0 1.0 33 84
- 0.4046 5 3 ack 40 ------- 0 5.0 1.0 33 84
r 0.405147 2 3 tcp 1040 ------- 0 1.0 5.0 35 55
+ 0.405147 3 5 tcp 1040 ------- 0 1.0 5.0 35 55
- 0.405147 3 5 tcp 1040 ------- 0 1.0 5.0 35 55
r 0.405693 1 2 tcp 1040 ------- 0 1.0 5.0 37 58
+ 0.405693 2 3 tcp 1040 ------- 0 1.0 5.0 37 58
- 0.405693 2 3 tcp 1040 ------- 0 1.0 5.0 37 58
- 0.40624 1 2 tcp 1040 ------- 0 1.0 5.0 39 61
r 0.409147 2 1 ack 40 ------- 0 5.0 1.0 31 80
+ 0.409147 1 2 tcp 1040 ------- 0 1.0 5.0 51 85
r 0.40948 3 2 ack 40 ------- 0 5.0 1.0 32 82
+ 0.40948 2 1 ack 40 ------- 0 5.0 1.0 32 82
- 0.40948 2 1 ack 40 ------- 0 5.0 1.0 32 82
r 0.409813 5 3 ack 40 ------- 0 5.0 1.0 33 84
+ 0.409813 3 2 ack 40 ------- 0 5.0 1.0 33 84
- 0.409813 3 2 ack 40 ------- 0 5.0 1.0 33 84