+ 0.1 0 1 tcp 40 ------- 0 0.0 1.0 0 0
- 0.1 0 1 tcp 40 ------- 0 0.0 1.0 0 0
r 0.122032 0 1 tcp 40 ------- 0 0.0 1.0 0 0
+ 0.122032 1 0 ack 40 ------- 0 1.0 0.0 0 1
- 0.122032 1 0 ack 40 ------- 0 1.0 0.0 0 1
r 0.144064 1 0 ack 40 ------- 0 1.0 0.0 0 1
+ 0.144064 0 1 tcp 1540 ------- 0 0.0 1.0 1 2
- 0.144064 0 1 tcp 1540 ------- 0 0.0 1.0 1 2
+ 0.144064 0 1 tcp 1540 ------- 0 0.0 1.0 2 3
- 0.145296 0 1 tcp 1540 ------- 0 0.0 1.0 2 3
r 0.167296 0 1 tcp 1540 ------- 0 0.0 1.0 1 2
+ 0.167296 1 0 ack 40 ------- 0 1.0 0.0 1 4
- 0.167296 1 0 ack 40 ------- 0 1.0 0.0 1 4
r 0.168528 0 1 tcp 1540 ------- 0 0.0 1.0 2 3
+ 0.168528 1 0 ack 40 ------- 0 1.0 0.0 2 5
- 0.168528 1 0 ack 40 ------- 0 1.0 0.0 2 5
r 0.189328 1 0 ack 40 ------- 0 1.0 0.0 1 4
+ 0.189328 0 1 tcp 1540 ------- 0 0.0 1.0 3 6
- 0.189328 0 1 tcp 1540 ------- 0 0.0 1.0 3 6
+ 0.189328 0 1 tcp 1540 ------- 0 0.0 1.0 4 7
r 0.19056 1 0 ack 40 ------- 0 1.0 0.0 2 5
+ 0.19056 0 1 tcp 1540 ------- 0 0.0 1.0 5 8
+ 0.19056 0 1 tcp 1540 ------- 0 0.0 1.0 6 9
- 0.19056 0 1 tcp 1540 ------- 0 0.0 1.0 4 7
- 0.191792 0 1 tcp 1540 ------- 0 0.0 1.0 5 8
- 0.193024 0 1 tcp 1540 ------- 0 0.0 1.0 6 9
r 0.21256 0 1 tcp 1540 ------- 0 0.0 1.0 3 6
+ 0.21256 1 0 ack 40 ------- 0 1.0 0.0 3 10
- 0.21256 1 0 ack 40 ------- 0 1.0 0.0 3 10
r 0.213792 0 1 tcp 1540 ------- 0 0.0 1.0 4 7
+ 0.213792 1 0 ack 40 ------- 0 1.0 0.0 4 11
- 0.213792 1 0 ack 40 ------- 0 1.0 0.0 4 11
r 0.215024 0 1 tcp 1540 ------- 0 0.0 1.0 5 8
+ 0.215024 1 0 ack 40 ------- 0 1.0 0.0 5 12
- 0.215024 1 0 ack 40 ------- 0 1.0 0.0 5 12
r 0.216256 0 1 tcp 1540 ------- 0 0.0 1.0 6 9
+ 0.216256 1 0 ack 40 ------- 0 1.0 0.0 6 13
- 0.216256 1 0 ack 40 ------- 0 1.0 0.0 6 13
r 0.234592 1 0 ack 40 ------- 0 1.0 0.0 3 10
+ 0.234592 0 1 tcp 1540 ------- 0 0.0 1.0 7 14
- 0.234592 0 1 tcp 1540 ------- 0 0.0 1.0 7 14
+ 0.234592 0 1 tcp 1540 ------- 0 0.0 1.0 8 15
r 0.235824 1 0 ack 40 ------- 0 1.0 0.0 4 11
+ 0.235824 0 1 tcp 1540 ------- 0 0.0 1.0 9 16
+ 0.235824 0 1 tcp 1540 ------- 0 0.0 1.0 10 17
- 0.235824 0 1 tcp 1540 ------- 0 0.0 1.0 8 15
r 0.237056 1 0 ack 40 ------- 0 1.0 0.0 5 12
+ 0.237056 0 1 tcp 1540 ------- 0 0.0 1.0 11 18
+ 0.237056 0 1 tcp 1540 ------- 0 0.0 1.0 12 19
- 0.237056 0 1 tcp 1540 ------- 0 0.0 1.0 9 16
r 0.238288 1 0 ack 40 ------- 0 1.0 0.0 6 13
+ 0.238288 0 1 tcp 1540 ------- 0 0.0 1.0 13 20
+ 0.238288 0 1 tcp 1540 ------- 0 0.0 1.0 14 21
- 0.238288 0 1 tcp 1540 ------- 0 0.0 1.0 10 17
- 0.23952 0 1 tcp 1540 ------- 0 0.0 1.0 11 18
- 0.240752 0 1 tcp 1540 ------- 0 0.0 1.0 12 19
- 0.241984 0 1 tcp 1540 ------- 0 0.0 1.0 13 20
- 0.243216 0 1 tcp 1540 ------- 0 0.0 1.0 14 21
r 0.257824 0 1 tcp 1540 ------- 0 0.0 1.0 7 14
+ 0.257824 1 0 ack 40 ------- 0 1.0 0.0 7 22
- 0.257824 1 0 ack 40 ------- 0 1.0 0.0 7 22
r 0.259056 0 1 tcp 1540 ------- 0 0.0 1.0 8 15
+ 0.259056 1 0 ack 40 ------- 0 1.0 0.0 8 23
- 0.259056 1 0 ack 40 ------- 0 1.0 0.0 8 23
r 0.260288 0 1 tcp 1540 ------- 0 0.0 1.0 9 16
+ 0.260288 1 0 ack 40 ------- 0 1.0 0.0 9 24
- 0.260288 1 0 ack 40 ------- 0 1.0 0.0 9 24
r 0.26152 0 1 tcp 1540 ------- 0 0.0 1.0 10 17
+ 0.26152 1 0 ack 40 ------- 0 1.0 0.0 10 25
- 0.26152 1 0 ack 40 ------- 0 1.0 0.0 10 25
r 0.262752 0 1 tcp 1540 ------- 0 0.0 1.0 11 18
+ 0.262752 1 0 ack 40 ------- 0 1.0 0.0 11 26
- 0.262752 1 0 ack 40 ------- 0 1.0 0.0 11 26
r 0.263984 0 1 tcp 1540 ------- 0 0.0 1.0 12 19
+ 0.263984 1 0 ack 40 ------- 0 1.0 0.0 12 27
- 0.263984 1 0 ack 40 ------- 0 1.0 0.0 12 27
r 0.265216 0 1 tcp 1540 ------- 0 0.0 1.0 13 20
+ 0.265216 1 0 ack 40 ------- 0 1.0 0.0 13 28
- 0.265216 1 0 ack 40 ------- 0 1.0 0.0 13 28
r 0.266448 0 1 tcp 1540 ------- 0 0.0 1.0 14 21
+ 0.266448 1 0 ack 40 ------- 0 1.0 0.0 14 29
- 0.266448 1 0 ack 40 ------- 0 1.0 0.0 14 29
r 0.279856 1 0 ack 40 ------- 0 1.0 0.0 7 22
+ 0.279856 0 1 tcp 1540 ------- 0 0.0 1.0 15 30
- 0.279856 0 1 tcp 1540 ------- 0 0.0 1.0 15 30
+ 0.279856 0 1 tcp 1540 ------- 0 0.0 1.0 16 31
r 0.281088 1 0 ack 40 ------- 0 1.0 0.0 8 23
+ 0.281088 0 1 tcp 1540 ------- 0 0.0 1.0 17 32
+ 0.281088 0 1 tcp 1540 ------- 0 0.0 1.0 18 33
- 0.281088 0 1 tcp 1540 ------- 0 0.0 1.0 16 31
r 0.28232 1 0 ack 40 ------- 0 1.0 0.0 9 24
+ 0.28232 0 1 tcp 1540 ------- 0 0.0 1.0 19 34
+ 0.28232 0 1 tcp 1540 ------- 0 0.0 1.0 20 35
- 0.28232 0 1 tcp 1540 ------- 0 0.0 1.0 17 32
r 0.283552 1 0 ack 40 ------- 0 1.0 0.0 10 25
+ 0.283552 0 1 tcp 1540 ------- 0 0.0 1.0 21 36
+ 0.283552 0 1 tcp 1540 ------- 0 0.0 1.0 22 37
- 0.283552 0 1 tcp 1540 ------- 0 0.0 1.0 18 33
r 0.284784 1 0 ack 40 ------- 0 1.0 0.0 11 26
+ 0.284784 0 1 tcp 1540 ------- 0 0.0 1.0 23 38
+ 0.284784 0 1 tcp 1540 ------- 0 0.0 1.0 24 39
- 0.284784 0 1 tcp 1540 ------- 0 0.0 1.0 19 34
r 0.286016 1 0 ack 40 ------- 0 1.0 0.0 12 27
+ 0.286016 0 1 tcp 1540 ------- 0 0.0 1.0 25 40
+ 0.286016 0 1 tcp 1540 ------- 0 0.0 1.0 26 41
- 0.286016 0 1 tcp 1540 ------- 0 0.0 1.0 20 35
r 0.287248 1 0 ack 40 ------- 0 1.0 0.0 13 28
+ 0.287248 0 1 tcp 1540 ------- 0 0.0 1.0 27 42
+ 0.287248 0 1 tcp 1540 ------- 0 0.0 1.0 28 43
- 0.287248 0 1 tcp 1540 ------- 0 0.0 1.0 21 36
r 0.28848 1 0 ack 40 ------- 0 1.0 0.0 14 29
+ 0.28848 0 1 tcp 1540 ------- 0 0.0 1.0 29 44
+ 0.28848 0 1 tcp 1540 ------- 0 0.0 1.0 30 45
- 0.28848 0 1 tcp 1540 ------- 0 0.0 1.0 22 37
- 0.289712 0 1 tcp 1540 ------- 0 0.0 1.0 23 38
- 0.290944 0 1 tcp 1540 ------- 0 0.0 1.0 24 39
- 0.292176 0 1 tcp 1540 ------- 0 0.0 1.0 25 40
- 0.293408 0 1 tcp 1540 ------- 0 0.0 1.0 26 41
- 0.29464 0 1 tcp 1540 ------- 0 0.0 1.0 27 42
- 0.295872 0 1 tcp 1540 ------- 0 0.0 1.0 28 43
- 0.297104 0 1 tcp 1540 ------- 0 0.0 1.0 29 44
- 0.298336 0 1 tcp 1540 ------- 0 0.0 1.0 30 45
r 0.303088 0 1 tcp 1540 ------- 0 0.0 1.0 15 30
+ 0.303088 1 0 ack 40 ------- 0 1.0 0.0 15 46
- 0.303088 1 0 ack 40 ------- 0 1.0 0.0 15 46
r 0.30432 0 1 tcp 1540 ------- 0 0.0 1.0 16 31
+ 0.30432 1 0 ack 40 ------- 0 1.0 0.0 16 47
- 0.30432 1 0 ack 40 ------- 0 1.0 0.0 16 47
r 0.305552 0 1 tcp 1540 ------- 0 0.0 1.0 17 32
+ 0.305552 1 0 ack 40 ------- 0 1.0 0.0 17 48
- 0.305552 1 0 ack 40 ------- 0 1.0 0.0 17 48
r 0.306784 0 1 tcp 1540 ------- 0 0.0 1.0 18 33
+ 0.306784 1 0 ack 40 ------- 0 1.0 0.0 18 49
- 0.306784 1 0 ack 40 ------- 0 1.0 0.0 18 49
r 0.308016 0 1 tcp 1540 ------- 0 0.0 1.0 19 34
+ 0.308016 1 0 ack 40 ------- 0 1.0 0.0 19 50
- 0.308016 1 0 ack 40 ------- 0 1.0 0.0 19 50
r 0.309248 0 1 tcp 1540 ------- 0 0.0 1.0 20 35
+ 0.309248 1 0 ack 40 ------- 0 1.0 0.0 20 51
- 0.309248 1 0 ack 40 ------- 0 1.0 0.0 20 51
r 0.31048 0 1 tcp 1540 ------- 0 0.0 1.0 21 36
+ 0.31048 1 0 ack 40 ------- 0 1.0 0.0 21 52
- 0.31048 1 0 ack 40 ------- 0 1.0 0.0 21 52
r 0.311712 0 1 tcp 1540 ------- 0 0.0 1.0 22 37
+ 0.311712 1 0 ack 40 ------- 0 1.0 0.0 22 53
- 0.311712 1 0 ack 40 ------- 0 1.0 0.0 22 53
r 0.312944 0 1 tcp 1540 ------- 0 0.0 1.0 23 38
+ 0.312944 1 0 ack 40 ------- 0 1.0 0.0 23 54
- 0.312944 1 0 ack 40 ------- 0 1.0 0.0 23 54
r 0.314176 0 1 tcp 1540 ------- 0 0.0 1.0 24 39
+ 0.314176 1 0 ack 40 ------- 0 1.0 0.0 24 55
- 0.314176 1 0 ack 40 ------- 0 1.0 0.0 24 55
r 0.315408 0 1 tcp 1540 ------- 0 0.0 1.0 25 40
+ 0.315408 1 0 ack 40 ------- 0 1.0 0.0 25 56
- 0.315408 1 0 ack 40 ------- 0 1.0 0.0 25 56
r 0.31664 0 1 tcp 1540 ------- 0 0.0 1.0 26 41
+ 0.31664 1 0 ack 40 ------- 0 1.0 0.0 26 57
- 0.31664 1 0 ack 40 ------- 0 1.0 0.0 26 57
r 0.317872 0 1 tcp 1540 ------- 0 0.0 1.0 27 42
+ 0.317872 1 0 ack 40 ------- 0 1.0 0.0 27 58
- 0.317872 1 0 ack 40 ------- 0 1.0 0.0 27 58
r 0.319104 0 1 tcp 1540 ------- 0 0.0 1.0 28 43
+ 0.319104 1 0 ack 40 ------- 0 1.0 0.0 28 59
- 0.319104 1 0 ack 40 ------- 0 1.0 0.0 28 59
r 0.320336 0 1 tcp 1540 ------- 0 0.0 1.0 29 44
+ 0.320336 1 0 ack 40 ------- 0 1.0 0.0 29 60
- 0.320336 1 0 ack 40 ------- 0 1.0 0.0 29 60
r 0.321568 0 1 tcp 1540 ------- 0 0.0 1.0 30 45
+ 0.321568 1 0 ack 40 ------- 0 1.0 0.0 30 61
- 0.321568 1 0 ack 40 ------- 0 1.0 0.0 30 61
r 0.32512 1 0 ack 40 ------- 0 1.0 0.0 15 46
+ 0.32512 0 1 tcp 1540 ------- 0 0.0 1.0 31 62
- 0.32512 0 1 tcp 1540 ------- 0 0.0 1.0 31 62
+ 0.32512 0 1 tcp 1540 ------- 0 0.0 1.0 32 63
r 0.326352 1 0 ack 40 ------- 0 1.0 0.0 16 47
+ 0.326352 0 1 tcp 1540 ------- 0 0.0 1.0 33 64
+ 0.326352 0 1 tcp 1540 ------- 0 0.0 1.0 34 65
- 0.326352 0 1 tcp 1540 ------- 0 0.0 1.0 32 63
r 0.327584 1 0 ack 40 ------- 0 1.0 0.0 17 48
+ 0.327584 0 1 tcp 1540 ------- 0 0.0 1.0 35 66
+ 0.327584 0 1 tcp 1540 ------- 0 0.0 1.0 36 67
- 0.327584 0 1 tcp 1540 ------- 0 0.0 1.0 33 64
r 0.328816 1 0 ack 40 ------- 0 1.0 0.0 18 49
+ 0.328816 0 1 tcp 1540 ------- 0 0.0 1.0 37 68
+ 0.328816 0 1 tcp 1540 ------- 0 0.0 1.0 38 69
- 0.328816 0 1 tcp 1540 ------- 0 0.0 1.0 34 65
r 0.330048 1 0 ack 40 ------- 0 1.0 0.0 19 50
+ 0.330048 0 1 tcp 1540 ------- 0 0.0 1.0 39 70
- 0.330048 0 1 tcp 1540 ------- 0 0.0 1.0 35 66
r 0.33128 1 0 ack 40 ------- 0 1.0 0.0 20 51
+ 0.33128 0 1 tcp 1540 ------- 0 0.0 1.0 40 71
- 0.33128 0 1 tcp 1540 ------- 0 0.0 1.0 36 67
r 0.332512 1 0 ack 40 ------- 0 1.0 0.0 21 52
+ 0.332512 0 1 tcp 1540 ------- 0 0.0 1.0 41 72
- 0.332512 0 1 tcp 1540 ------- 0 0.0 1.0 37 68
r 0.333744 1 0 ack 40 ------- 0 1.0 0.0 22 53
+ 0.333744 0 1 tcp 1540 ------- 0 0.0 1.0 42 73
- 0.333744 0 1 tcp 1540 ------- 0 0.0 1.0 38 69
r 0.334976 1 0 ack 40 ------- 0 1.0 0.0 23 54
+ 0.334976 0 1 tcp 1540 ------- 0 0.0 1.0 43 74
- 0.334976 0 1 tcp 1540 ------- 0 0.0 1.0 39 70
r 0.336208 1 0 ack 40 ------- 0 1.0 0.0 24 55
+ 0.336208 0 1 tcp 1540 ------- 0 0.0 1.0 44 75
- 0.336208 0 1 tcp 1540 ------- 0 0.0 1.0 40 71
r 0.33744 1 0 ack 40 ------- 0 1.0 0.0 25 56
+ 0.33744 0 1 tcp 1540 ------- 0 0.0 1.0 45 76
- 0.33744 0 1 tcp 1540 ------- 0 0.0 1.0 41 72
r 0.338672 1 0 ack 40 ------- 0 1.0 0.0 26 57
+ 0.338672 0 1 tcp 1540 ------- 0 0.0 1.0 46 77
- 0.338672 0 1 tcp 1540 ------- 0 0.0 1.0 42 73
r 0.339904 1 0 ack 40 ------- 0 1.0 0.0 27 58
+ 0.339904 0 1 tcp 1540 ------- 0 0.0 1.0 47 78
- 0.339904 0 1 tcp 1540 ------- 0 0.0 1.0 43 74
r 0.341136 1 0 ack 40 ------- 0 1.0 0.0 28 59
+ 0.341136 0 1 tcp 1540 ------- 0 0.0 1.0 48 79
- 0.341136 0 1 tcp 1540 ------- 0 0.0 1.0 44 75
r 0.342368 1 0 ack 40 ------- 0 1.0 0.0 29 60
+ 0.342368 0 1 tcp 1540 ------- 0 0.0 1.0 49 80
- 0.342368 0 1 tcp 1540 ------- 0 0.0 1.0 45 76
r 0.3436 1 0 ack 40 ------- 0 1.0 0.0 30 61
+ 0.3436 0 1 tcp 1540 ------- 0 0.0 1.0 50 81
- 0.3436 0 1 tcp 1540 ------- 0 0.0 1.0 46 77
- 0.344832 0 1 tcp 1540 ------- 0 0.0 1.0 47 78
- 0.346064 0 1 tcp 1540 ------- 0 0.0 1.0 48 79
- 0.347296 0 1 tcp 1540 ------- 0 0.0 1.0 49 80
r 0.348352 0 1 tcp 1540 ------- 0 0.0 1.0 31 62
+ 0.348352 1 0 ack 40 ------- 0 1.0 0.0 31 82
- 0.348352 1 0 ack 40 ------- 0 1.0 0.0 31 82
- 0.348528 0 1 tcp 1540 ------- 0 0.0 1.0 50 81
r 0.349584 0 1 tcp 1540 ------- 0 0.0 1.0 32 63
+ 0.349584 1 0 ack 40 ------- 0 1.0 0.0 32 83
- 0.349584 1 0 ack 40 ------- 0 1.0 0.0 32 83
r 0.350816 0 1 tcp 1540 ------- 0 0.0 1.0 33 64
+ 0.350816 1 0 ack 40 ------- 0 1.0 0.0 33 84
- 0.350816 1 0 ack 40 ------- 0 1.0 0.0 33 84
r 0.352048 0 1 tcp 1540 ------- 0 0.0 1.0 34 65
+ 0.352048 1 0 ack 40 ------- 0 1.0 0.0 34 85
- 0.352048 1 0 ack 40 ------- 0 1.0 0.0 34 85
r 0.35328 0 1 tcp 1540 ------- 0 0.0 1.0 35 66
+ 0.35328 1 0 ack 40 ------- 0 1.0 0.0 35 86
- 0.35328 1 0 ack 40 ------- 0 1.0 0.0 35 86
r 0.354512 0 1 tcp 1540 ------- 0 0.0 1.0 36 67
+ 0.354512 1 0 ack 40 ------- 0 1.0 0.0 36 87
- 0.354512 1 0 ack 40 ------- 0 1.0 0.0 36 87
r 0.355744 0 1 tcp 1540 ------- 0 0.0 1.0 37 68
+ 0.355744 1 0 ack 40 ------- 0 1.0 0.0 37 88
- 0.355744 1 0 ack 40 ------- 0 1.0 0.0 37 88
r 0.356976 0 1 tcp 1540 ------- 0 0.0 1.0 38 69
+ 0.356976 1 0 ack 40 ------- 0 1.0 0.0 38 89
- 0.356976 1 0 ack 40 ------- 0 1.0 0.0 38 89
r 0.358208 0 1 tcp 1540 ------- 0 0.0 1.0 39 70
+ 0.358208 1 0 ack 40 ------- 0 1.0 0.0 39 90
- 0.358208 1 0 ack 40 ------- 0 1.0 0.0 39 90
r 0.35944 0 1 tcp 1540 ------- 0 0.0 1.0 40 71
+ 0.35944 1 0 ack 40 ------- 0 1.0 0.0 40 91
- 0.35944 1 0 ack 40 ------- 0 1.0 0.0 40 91
r 0.360672 0 1 tcp 1540 ------- 0 0.0 1.0 41 72
+ 0.360672 1 0 ack 40 ------- 0 1.0 0.0 41 92
- 0.360672 1 0 ack 40 ------- 0 1.0 0.0 41 92
r 0.361904 0 1 tcp 1540 ------- 0 0.0 1.0 42 73
+ 0.361904 1 0 ack 40 ------- 0 1.0 0.0 42 93
- 0.361904 1 0 ack 40 ------- 0 1.0 0.0 42 93
r 0.363136 0 1 tcp 1540 ------- 0 0.0 1.0 43 74
+ 0.363136 1 0 ack 40 ------- 0 1.0 0.0 43 94
- 0.363136 1 0 ack 40 ------- 0 1.0 0.0 43 94
r 0.364368 0 1 tcp 1540 ------- 0 0.0 1.0 44 75
+ 0.364368 1 0 ack 40 ------- 0 1.0 0.0 44 95
- 0.364368 1 0 ack 40 ------- 0 1.0 0.0 44 95
r 0.3656 0 1 tcp 1540 ------- 0 0.0 1.0 45 76
+ 0.3656 1 0 ack 40 ------- 0 1.0 0.0 45 96
- 0.3656 1 0 ack 40 ------- 0 1.0 0.0 45 96
r 0.366832 0 1 tcp 1540 ------- 0 0.0 1.0 46 77
+ 0.366832 1 0 ack 40 ------- 0 1.0 0.0 46 97
- 0.366832 1 0 ack 40 ------- 0 1.0 0.0 46 97
r 0.368064 0 1 tcp 1540 ------- 0 0.0 1.0 47 78
+ 0.368064 1 0 ack 40 ------- 0 1.0 0.0 47 98
- 0.368064 1 0 ack 40 ------- 0 1.0 0.0 47 98
r 0.369296 0 1 tcp 1540 ------- 0 0.0 1.0 48 79
+ 0.369296 1 0 ack 40 ------- 0 1.0 0.0 48 99
- 0.369296 1 0 ack 40 ------- 0 1.0 0.0 48 99
r 0.370384 1 0 ack 40 ------- 0 1.0 0.0 31 82
+ 0.370384 0 1 tcp 1540 ------- 0 0.0 1.0 51 100
- 0.370384 0 1 tcp 1540 ------- 0 0.0 1.0 51 100
r 0.370528 0 1 tcp 1540 ------- 0 0.0 1.0 49 80
+ 0.370528 1 0 ack 40 ------- 0 1.0 0.0 49 101
- 0.370528 1 0 ack 40 ------- 0 1.0 0.0 49 101
r 0.371616 1 0 ack 40 ------- 0 1.0 0.0 32 83
+ 0.371616 0 1 tcp 1540 ------- 0 0.0 1.0 52 102
- 0.371616 0 1 tcp 1540 ------- 0 0.0 1.0 52 102
r 0.37176 0 1 tcp 1540 ------- 0 0.0 1.0 50 81
+ 0.37176 1 0 ack 40 ------- 0 1.0 0.0 50 103
- 0.37176 1 0 ack 40 ------- 0 1.0 0.0 50 103
r 0.372848 1 0 ack 40 ------- 0 1.0 0.0 33 84
+ 0.372848 0 1 tcp 1540 ------- 0 0.0 1.0 53 104
- 0.372848 0 1 tcp 1540 ------- 0 0.0 1.0 53 104
r 0.37408 1 0 ack 40 ------- 0 1.0 0.0 34 85
+ 0.37408 0 1 tcp 1540 ------- 0 0.0 1.0 54 105
- 0.37408 0 1 tcp 1540 ------- 0 0.0 1.0 54 105
r 0.375312 1 0 ack 40 ------- 0 1.0 0.0 35 86
+ 0.375312 0 1 tcp 1540 ------- 0 0.0 1.0 55 106
- 0.375312 0 1 tcp 1540 ------- 0 0.0 1.0 55 106
r 0.376544 1 0 ack 40 ------- 0 1.0 0.0 36 87
+ 0.376544 0 1 tcp 1540 ------- 0 0.0 1.0 56 107
- 0.376544 0 1 tcp 1540 ------- 0 0.0 1.0 56 107
r 0.377776 1 0 ack 40 ------- 0 1.0 0.0 37 88
+ 0.377776 0 1 tcp 1540 ------- 0 0.0 1.0 57 108
- 0.377776 0 1 tcp 1540 ------- 0 0.0 1.0 57 108
r 0.379008 1 0 ack 40 ------- 0 1.0 0.0 38 89
+ 0.379008 0 1 tcp 1540 ------- 0 0.0 1.0 58 109
- 0.379008 0 1 tcp 1540 ------- 0 0.0 1.0 58 109
r 0.38024 1 0 ack 40 ------- 0 1.0 0.0 39 90
+ 0.38024 0 1 tcp 1540 ------- 0 0.0 1.0 59 110
- 0.38024 0 1 tcp 1540 ------- 0 0.0 1.0 59 110
r 0.381472 1 0 ack 40 ------- 0 1.0 0.0 40 91
+ 0.381472 0 1 tcp 1540 ------- 0 0.0 1.0 60 111
- 0.381472 0 1 tcp 1540 ------- 0 0.0 1.0 60 111
r 0.382704 1 0 ack 40 ------- 0 1.0 0.0 41 92
+ 0.382704 0 1 tcp 1540 ------- 0 0.0 1.0 61 112
- 0.382704 0 1 tcp 1540 ------- 0 0.0 1.0 61 112
r 0.383936 1 0 ack 40 ------- 0 1.0 0.0 42 93
+ 0.383936 0 1 tcp 1540 ------- 0 0.0 1.0 62 113
- 0.383936 0 1 tcp 1540 ------- 0 0.0 1.0 62 113
r 0.385168 1 0 ack 40 ------- 0 1.0 0.0 43 94
+ 0.385168 0 1 tcp 1540 ------- 0 0.0 1.0 63 114
- 0.385168 0 1 tcp 1540 ------- 0 0.0 1.0 63 114
r 0.3864 1 0 ack 40 ------- 0 1.0 0.0 44 95
+ 0.3864 0 1 tcp 1540 ------- 0 0.0 1.0 64 115
- 0.3864 0 1 tcp 1540 ------- 0 0.0 1.0 64 115
r 0.387632 1 0 ack 40 ------- 0 1.0 0.0 45 96
+ 0.387632 0 1 tcp 1540 ------- 0 0.0 1.0 65 116
- 0.387632 0 1 tcp 1540 ------- 0 0.0 1.0 65 116
r 0.388864 1 0 ack 40 ------- 0 1.0 0.0 46 97
+ 0.388864 0 1 tcp 1540 ------- 0 0.0 1.0 66 117
- 0.388864 0 1 tcp 1540 ------- 0 0.0 1.0 66 117
r 0.390096 1 0 ack 40 ------- 0 1.0 0.0 47 98
+ 0.390096 0 1 tcp 1540 ------- 0 0.0 1.0 67 118
- 0.390096 0 1 tcp 1540 ------- 0 0.0 1.0 67 118
r 0.391328 1 0 ack 40 ------- 0 1.0 0.0 48 99
+ 0.391328 0 1 tcp 1540 ------- 0 0.0 1.0 68 119
- 0.391328 0 1 tcp 1540 ------- 0 0.0 1.0 68 119
r 0.39256 1 0 ack 40 ------- 0 1.0 0.0 49 101
+ 0.39256 0 1 tcp 1540 ------- 0 0.0 1.0 69 120
- 0.39256 0 1 tcp 1540 ------- 0 0.0 1.0 69 120
r 0.393616 0 1 tcp 1540 ------- 0 0.0 1.0 51 100
+ 0.393616 1 0 ack 40 ------- 0 1.0 0.0 51 121
- 0.393616 1 0 ack 40 ------- 0 1.0 0.0 51 121
r 0.393792 1 0 ack 40 ------- 0 1.0 0.0 50 103
+ 0.393792 0 1 tcp 1540 ------- 0 0.0 1.0 70 122
- 0.393792 0 1 tcp 1540 ------- 0 0.0 1.0 70 122
r 0.394848 0 1 tcp 1540 ------- 0 0.0 1.0 52 102
+ 0.394848 1 0 ack 40 ------- 0 1.0 0.0 52 123
- 0.394848 1 0 ack 40 ------- 0 1.0 0.0 52 123
r 0.39608 0 1 tcp 1540 ------- 0 0.0 1.0 53 104
+ 0.39608 1 0 ack 40 ------- 0 1.0 0.0 53 124
- 0.39608 1 0 ack 40 ------- 0 1.0 0.0 53 124
r 0.397312 0 1 tcp 1540 ------- 0 0.0 1.0 54 105
+ 0.397312 1 0 ack 40 ------- 0 1.0 0.0 54 125
- 0.397312 1 0 ack 40 ------- 0 1.0 0.0 54 125
r 0.398544 0 1 tcp 1540 ------- 0 0.0 1.0 55 106
+ 0.398544 1 0 ack 40 ------- 0 1.0 0.0 55 126
- 0.398544 1 0 ack 40 ------- 0 1.0 0.0 55 126
r 0.399776 0 1 tcp 1540 ------- 0 0.0 1.0 56 107
+ 0.399776 1 0 ack 40 ------- 0 1.0 0.0 56 127
- 0.399776 1 0 ack 40 ------- 0 1.0 0.0 56 127
r 0.401008 0 1 tcp 1540 ------- 0 0.0 1.0 57 108
+ 0.401008 1 0 ack 40 ------- 0 1.0 0.0 57 128
- 0.401008 1 0 ack 40 ------- 0 1.0 0.0 57 128
r 0.40224 0 1 tcp 1540 ------- 0 0.0 1.0 58 109
+ 0.40224 1 0 ack 40 ------- 0 1.0 0.0 58 129
- 0.40224 1 0 ack 40 ------- 0 1.0 0.0 58 129
r 0.403472 0 1 tcp 1540 ------- 0 0.0 1.0 59 110
+ 0.403472 1 0 ack 40 ------- 0 1.0 0.0 59 130
- 0.403472 1 0 ack 40 ------- 0 1.0 0.0 59 130
r 0.404704 0 1 tcp 1540 ------- 0 0.0 1.0 60 111
+ 0.404704 1 0 ack 40 ------- 0 1.0 0.0 60 131
- 0.404704 1 0 ack 40 ------- 0 1.0 0.0 60 131
r 0.405936 0 1 tcp 1540 ------- 0 0.0 1.0 61 112
+ 0.405936 1 0 ack 40 ------- 0 1.0 0.0 61 132
- 0.405936 1 0 ack 40 ------- 0 1.0 0.0 61 132
r 0.407168 0 1 tcp 1540 ------- 0 0.0 1.0 62 113
+ 0.407168 1 0 ack 40 ------- 0 1.0 0.0 62 133
- 0.407168 1 0 ack 40 ------- 0 1.0 0.0 62 133
r 0.4084 0 1 tcp 1540 ------- 0 0.0 1.0 63 114
+ 0.4084 1 0 ack 40 ------- 0 1.0 0.0 63 134
- 0.4084 1 0 ack 40 ------- 0 1.0 0.0 63 134
r 0.409632 0 1 tcp 1540 ------- 0 0.0 1.0 64 115
+ 0.409632 1 0 ack 40 ------- 0 1.0 0.0 64 135
- 0.409632 1 0 ack 40 ------- 0 1.0 0.0 64 135
r 0.410864 0 1 tcp 1540 ------- 0 0.0 1.0 65 116
+ 0.410864 1 0 ack 40 ------- 0 1.0 0.0 65 136
- 0.410864 1 0 ack 40 ------- 0 1.0 0.0 65 136
r 0.412096 0 1 tcp 1540 ------- 0 0.0 1.0 66 117
+ 0.412096 1 0 ack 40 ------- 0 1.0 0.0 66 137
- 0.412096 1 0 ack 40 ------- 0 1.0 0.0 66 137
r 0.413328 0 1 tcp 1540 ------- 0 0.0 1.0 67 118
+ 0.413328 1 0 ack 40 ------- 0 1.0 0.0 67 138
- 0.413328 1 0 ack 40 ------- 0 1.0 0.0 67 138
r 0.41456 0 1 tcp 1540 ------- 0 0.0 1.0 68 119
+ 0.41456 1 0 ack 40 ------- 0 1.0 0.0 68 139
- 0.41456 1 0 ack 40 ------- 0 1.0 0.0 68 139
r 0.415648 1 0 ack 40 ------- 0 1.0 0.0 51 121
+ 0.415648 0 1 tcp 1540 ------- 0 0.0 1.0 71 140
- 0.415648 0 1 tcp 1540 ------- 0 0.0 1.0 71 140
r 0.415792 0 1 tcp 1540 ------- 0 0.0 1.0 69 120
+ 0.415792 1 0 ack 40 ------- 0 1.0 0.0 69 141
- 0.415792 1 0 ack 40 ------- 0 1.0 0.0 69 141
r 0.41688 1 0 ack 40 ------- 0 1.0 0.0 52 123
+ 0.41688 0 1 tcp 1540 ------- 0 0.0 1.0 72 142
- 0.41688 0 1 tcp 1540 ------- 0 0.0 1.0 72 142
r 0.417024 0 1 tcp 1540 ------- 0 0.0 1.0 70 122
+ 0.417024 1 0 ack 40 ------- 0 1.0 0.0 70 143
- 0.417024 1 0 ack 40 ------- 0 1.0 0.0 70 143
r 0.418112 1 0 ack 40 ------- 0 1.0 0.0 53 124
+ 0.418112 0 1 tcp 1540 ------- 0 0.0 1.0 73 144
- 0.418112 0 1 tcp 1540 ------- 0 0.0 1.0 73 144
r 0.419344 1 0 ack 40 ------- 0 1.0 0.0 54 125
+ 0.419344 0 1 tcp 1540 ------- 0 0.0 1.0 74 145
- 0.419344 0 1 tcp 1540 ------- 0 0.0 1.0 74 145
r 0.420576 1 0 ack 40 ------- 0 1.0 0.0 55 126
+ 0.420576 0 1 tcp 1540 ------- 0 0.0 1.0 75 146
- 0.420576 0 1 tcp 1540 ------- 0 0.0 1.0 75 146
r 0.421808 1 0 ack 40 ------- 0 1.0 0.0 56 127
+ 0.421808 0 1 tcp 1540 ------- 0 0.0 1.0 76 147
- 0.421808 0 1 tcp 1540 ------- 0 0.0 1.0 76 147
r 0.42304 1 0 ack 40 ------- 0 1.0 0.0 57 128
+ 0.42304 0 1 tcp 1540 ------- 0 0.0 1.0 77 148
- 0.42304 0 1 tcp 1540 ------- 0 0.0 1.0 77 148
r 0.424272 1 0 ack 40 ------- 0 1.0 0.0 58 129
+ 0.424272 0 1 tcp 1540 ------- 0 0.0 1.0 78 149
- 0.424272 0 1 tcp 1540 ------- 0 0.0 1.0 78 149
r 0.425504 1 0 ack 40 ------- 0 1.0 0.0 59 130
+ 0.425504 0 1 tcp 1540 ------- 0 0.0 1.0 79 150
- 0.425504 0 1 tcp 1540 ------- 0 0.0 1.0 79 150
r 0.426736 1 0 ack 40 ------- 0 1.0 0.0 60 131
+ 0.426736 0 1 tcp 1540 ------- 0 0.0 1.0 80 151
- 0.426736 0 1 tcp 1540 ------- 0 0.0 1.0 80 151
r 0.427968 1 0 ack 40 ------- 0 1.0 0.0 61 132
+ 0.427968 0 1 tcp 1540 ------- 0 0.0 1.0 81 152
- 0.427968 0 1 tcp 1540 ------- 0 0.0 1.0 81 152
r 0.4292 1 0 ack 40 ------- 0 1.0 0.0 62 133
+ 0.4292 0 1 tcp 1540 ------- 0 0.0 1.0 82 153
- 0.4292 0 1 tcp 1540 ------- 0 0.0 1.0 82 153
r 0.430432 1 0 ack 40 ------- 0 1.0 0.0 63 134
+ 0.430432 0 1 tcp 1540 ------- 0 0.0 1.0 83 154
- 0.430432 0 1 tcp 1540 ------- 0 0.0 1.0 83 154
r 0.431664 1 0 ack 40 ------- 0 1.0 0.0 64 135
+ 0.431664 0 1 tcp 1540 ------- 0 0.0 1.0 84 155
- 0.431664 0 1 tcp 1540 ------- 0 0.0 1.0 84 155
r 0.432896 1 0 ack 40 ------- 0 1.0 0.0 65 136
+ 0.432896 0 1 tcp 1540 ------- 0 0.0 1.0 85 156
- 0.432896 0 1 tcp 1540 ------- 0 0.0 1.0 85 156
r 0.434128 1 0 ack 40 ------- 0 1.0 0.0 66 137
+ 0.434128 0 1 tcp 1540 ------- 0 0.0 1.0 86 157
- 0.434128 0 1 tcp 1540 ------- 0 0.0 1.0 86 157
r 0.43536 1 0 ack 40 ------- 0 1.0 0.0 67 138
+ 0.43536 0 1 tcp 1540 ------- 0 0.0 1.0 87 158
- 0.43536 0 1 tcp 1540 ------- 0 0.0 1.0 87 158
r 0.436592 1 0 ack 40 ------- 0 1.0 0.0 68 139
+ 0.436592 0 1 tcp 1540 ------- 0 0.0 1.0 88 159
- 0.436592 0 1 tcp 1540 ------- 0 0.0 1.0 88 159
r 0.437824 1 0 ack 40 ------- 0 1.0 0.0 69 141
+ 0.437824 0 1 tcp 1540 ------- 0 0.0 1.0 89 160
- 0.437824 0 1 tcp 1540 ------- 0 0.0 1.0 89 160
r 0.43888 0 1 tcp 1540 ------- 0 0.0 1.0 71 140
+ 0.43888 1 0 ack 40 ------- 0 1.0 0.0 71 161
- 0.43888 1 0 ack 40 ------- 0 1.0 0.0 71 161
r 0.439056 1 0 ack 40 ------- 0 1.0 0.0 70 143
+ 0.439056 0 1 tcp 1540 ------- 0 0.0 1.0 90 162
- 0.439056 0 1 tcp 1540 ------- 0 0.0 1.0 90 162
r 0.440112 0 1 tcp 1540 ------- 0 0.0 1.0 72 142
+ 0.440112 1 0 ack 40 ------- 0 1.0 0.0 72 163
- 0.440112 1 0 ack 40 ------- 0 1.0 0.0 72 163
r 0.441344 0 1 tcp 1540 ------- 0 0.0 1.0 73 144
+ 0.441344 1 0 ack 40 ------- 0 1.0 0.0 73 164
- 0.441344 1 0 ack 40 ------- 0 1.0 0.0 73 164
r 0.442576 0 1 tcp 1540 ------- 0 0.0 1.0 74 145
+ 0.442576 1 0 ack 40 ------- 0 1.0 0.0 74 165
- 0.442576 1 0 ack 40 ------- 0 1.0 0.0 74 165
r 0.443808 0 1 tcp 1540 ------- 0 0.0 1.0 75 146
+ 0.443808 1 0 ack 40 ------- 0 1.0 0.0 75 166
- 0.443808 1 0 ack 40 ------- 0 1.0 0.0 75 166
r 0.44504 0 1 tcp 1540 ------- 0 0.0 1.0 76 147
+ 0.44504 1 0 ack 40 ------- 0 1.0 0.0 76 167
- 0.44504 1 0 ack 40 ------- 0 1.0 0.0 76 167
r 0.446272 0 1 tcp 1540 ------- 0 0.0 1.0 77 148
+ 0.446272 1 0 ack 40 ------- 0 1.0 0.0 77 168
- 0.446272 1 0 ack 40 ------- 0 1.0 0.0 77 168
r 0.447504 0 1 tcp 1540 ------- 0 0.0 1.0 78 149
+ 0.447504 1 0 ack 40 ------- 0 1.0 0.0 78 169
- 0.447504 1 0 ack 40 ------- 0 1.0 0.0 78 169
r 0.448736 0 1 tcp 1540 ------- 0 0.0 1.0 79 150
+ 0.448736 1 0 ack 40 ------- 0 1.0 0.0 79 170
- 0.448736 1 0 ack 40 ------- 0 1.0 0.0 79 170
r 0.449968 0 1 tcp 1540 ------- 0 0.0 1.0 80 151
+ 0.449968 1 0 ack 40 ------- 0 1.0 0.0 80 171
- 0.449968 1 0 ack 40 ------- 0 1.0 0.0 80 171
r 0.4512 0 1 tcp 1540 ------- 0 0.0 1.0 81 152
+ 0.4512 1 0 ack 40 ------- 0 1.0 0.0 81 172
- 0.4512 1 0 ack 40 ------- 0 1.0 0.0 81 172
r 0.452432 0 1 tcp 1540 ------- 0 0.0 1.0 82 153
+ 0.452432 1 0 ack 40 ------- 0 1.0 0.0 82 173
- 0.452432 1 0 ack 40 ------- 0 1.0 0.0 82 173
r 0.453664 0 1 tcp 1540 ------- 0 0.0 1.0 83 154
+ 0.453664 1 0 ack 40 ------- 0 1.0 0.0 83 174
- 0.453664 1 0 ack 40 ------- 0 1.0 0.0 83 174
r 0.454896 0 1 tcp 1540 ------- 0 0.0 1.0 84 155
+ 0.454896 1 0 ack 40 ------- 0 1.0 0.0 84 175
- 0.454896 1 0 ack 40 ------- 0 1.0 0.0 84 175
r 0.456128 0 1 tcp 1540 ------- 0 0.0 1.0 85 156
+ 0.456128 1 0 ack 40 ------- 0 1.0 0.0 85 176
- 0.456128 1 0 ack 40 ------- 0 1.0 0.0 85 176
r 0.45736 0 1 tcp 1540 ------- 0 0.0 1.0 86 157
+ 0.45736 1 0 ack 40 ------- 0 1.0 0.0 86 177
- 0.45736 1 0 ack 40 ------- 0 1.0 0.0 86 177
r 0.458592 0 1 tcp 1540 ------- 0 0.0 1.0 87 158
+ 0.458592 1 0 ack 40 ------- 0 1.0 0.0 87 178
- 0.458592 1 0 ack 40 ------- 0 1.0 0.0 87 178
r 0.459824 0 1 tcp 1540 ------- 0 0.0 1.0 88 159
+ 0.459824 1 0 ack 40 ------- 0 1.0 0.0 88 179
- 0.459824 1 0 ack 40 ------- 0 1.0 0.0 88 179
r 0.460912 1 0 ack 40 ------- 0 1.0 0.0 71 161
+ 0.460912 0 1 tcp 1540 ------- 0 0.0 1.0 91 180
- 0.460912 0 1 tcp 1540 ------- 0 0.0 1.0 91 180
r 0.461056 0 1 tcp 1540 ------- 0 0.0 1.0 89 160
+ 0.461056 1 0 ack 40 ------- 0 1.0 0.0 89 181
- 0.461056 1 0 ack 40 ------- 0 1.0 0.0 89 181
r 0.462144 1 0 ack 40 ------- 0 1.0 0.0 72 163
+ 0.462144 0 1 tcp 1540 ------- 0 0.0 1.0 92 182
- 0.462144 0 1 tcp 1540 ------- 0 0.0 1.0 92 182
r 0.462288 0 1 tcp 1540 ------- 0 0.0 1.0 90 162
+ 0.462288 1 0 ack 40 ------- 0 1.0 0.0 90 183
- 0.462288 1 0 ack 40 ------- 0 1.0 0.0 90 183
r 0.463376 1 0 ack 40 ------- 0 1.0 0.0 73 164
+ 0.463376 0 1 tcp 1540 ------- 0 0.0 1.0 93 184
- 0.463376 0 1 tcp 1540 ------- 0 0.0 1.0 93 184
r 0.464608 1 0 ack 40 ------- 0 1.0 0.0 74 165
+ 0.464608 0 1 tcp 1540 ------- 0 0.0 1.0 94 185
- 0.464608 0 1 tcp 1540 ------- 0 0.0 1.0 94 185
r 0.46584 1 0 ack 40 ------- 0 1.0 0.0 75 166
+ 0.46584 0 1 tcp 1540 ------- 0 0.0 1.0 95 186
- 0.46584 0 1 tcp 1540 ------- 0 0.0 1.0 95 186
r 0.467072 1 0 ack 40 ------- 0 1.0 0.0 76 167
+ 0.467072 0 1 tcp 1540 ------- 0 0.0 1.0 96 187
- 0.467072 0 1 tcp 1540 ------- 0 0.0 1.0 96 187
r 0.468304 1 0 ack 40 ------- 0 1.0 0.0 77 168
+ 0.468304 0 1 tcp 1540 ------- 0 0.0 1.0 97 188
- 0.468304 0 1 tcp 1540 ------- 0 0.0 1.0 97 188
r 0.469536 1 0 ack 40 ------- 0 1.0 0.0 78 169
+ 0.469536 0 1 tcp 1540 ------- 0 0.0 1.0 98 189
- 0.469536 0 1 tcp 1540 ------- 0 0.0 1.0 98 189
r 0.470768 1 0 ack 40 ------- 0 1.0 0.0 79 170
+ 0.470768 0 1 tcp 1540 ------- 0 0.0 1.0 99 190
- 0.470768 0 1 tcp 1540 ------- 0 0.0 1.0 99 190
r 0.472 1 0 ack 40 ------- 0 1.0 0.0 80 171
+ 0.472 0 1 tcp 1540 ------- 0 0.0 1.0 100 191
- 0.472 0 1 tcp 1540 ------- 0 0.0 1.0 100 191
r 0.473232 1 0 ack 40 ------- 0 1.0 0.0 81 172
+ 0.473232 0 1 tcp 1540 ------- 0 0.0 1.0 101 192
- 0.473232 0 1 tcp 1540 ------- 0 0.0 1.0 101 192
r 0.474464 1 0 ack 40 ------- 0 1.0 0.0 82 173
+ 0.474464 0 1 tcp 1540 ------- 0 0.0 1.0 102 193
- 0.474464 0 1 tcp 1540 ------- 0 0.0 1.0 102 193
r 0.475696 1 0 ack 40 ------- 0 1.0 0.0 83 174
+ 0.475696 0 1 tcp 1540 ------- 0 0.0 1.0 103 194
- 0.475696 0 1 tcp 1540 ------- 0 0.0 1.0 103 194
r 0.476928 1 0 ack 40 ------- 0 1.0 0.0 84 175
+ 0.476928 0 1 tcp 1540 ------- 0 0.0 1.0 104 195
- 0.476928 0 1 tcp 1540 ------- 0 0.0 1.0 104 195
r 0.47816 1 0 ack 40 ------- 0 1.0 0.0 85 176
+ 0.47816 0 1 tcp 1540 ------- 0 0.0 1.0 105 196
- 0.47816 0 1 tcp 1540 ------- 0 0.0 1.0 105 196
r 0.479392 1 0 ack 40 ------- 0 1.0 0.0 86 177
+ 0.479392 0 1 tcp 1540 ------- 0 0.0 1.0 106 197
- 0.479392 0 1 tcp 1540 ------- 0 0.0 1.0 106 197
r 0.480624 1 0 ack 40 ------- 0 1.0 0.0 87 178
+ 0.480624 0 1 tcp 1540 ------- 0 0.0 1.0 107 198
- 0.480624 0 1 tcp 1540 ------- 0 0.0 1.0 107 198
r 0.481856 1 0 ack 40 ------- 0 1.0 0.0 88 179
+ 0.481856 0 1 tcp 1540 ------- 0 0.0 1.0 108 199
- 0.481856 0 1 tcp 1540 ------- 0 0.0 1.0 108 199
r 0.483088 1 0 ack 40 ------- 0 1.0 0.0 89 181
+ 0.483088 0 1 tcp 1540 ------- 0 0.0 1.0 109 200
- 0.483088 0 1 tcp 1540 ------- 0 0.0 1.0 109 200
r 0.484144 0 1 tcp 1540 ------- 0 0.0 1.0 91 180
+ 0.484144 1 0 ack 40 ------- 0 1.0 0.0 91 201
- 0.484144 1 0 ack 40 ------- 0 1.0 0.0 91 201
r 0.48432 1 0 ack 40 ------- 0 1.0 0.0 90 183
+ 0.48432 0 1 tcp 1540 ------- 0 0.0 1.0 110 202
- 0.48432 0 1 tcp 1540 ------- 0 0.0 1.0 110 202
r 0.485376 0 1 tcp 1540 ------- 0 0.0 1.0 92 182
+ 0.485376 1 0 ack 40 ------- 0 1.0 0.0 92 203
- 0.485376 1 0 ack 40 ------- 0 1.0 0.0 92 203
r 0.486608 0 1 tcp 1540 ------- 0 0.0 1.0 93 184
+ 0.486608 1 0 ack 40 ------- 0 1.0 0.0 93 204
- 0.486608 1 0 ack 40 ------- 0 1.0 0.0 93 204
r 0.48784 0 1 tcp 1540 ------- 0 0.0 1.0 94 185
+ 0.48784 1 0 ack 40 ------- 0 1.0 0.0 94 205
- 0.48784 1 0 ack 40 ------- 0 1.0 0.0 94 205
r 0.489072 0 1 tcp 1540 ------- 0 0.0 1.0 95 186
+ 0.489072 1 0 ack 40 ------- 0 1.0 0.0 95 206
- 0.489072 1 0 ack 40 ------- 0 1.0 0.0 95 206
r 0.490304 0 1 tcp 1540 ------- 0 0.0 1.0 96 187
+ 0.490304 1 0 ack 40 ------- 0 1.0 0.0 96 207
- 0.490304 1 0 ack 40 ------- 0 1.0 0.0 96 207
r 0.491536 0 1 tcp 1540 ------- 0 0.0 1.0 97 188
+ 0.491536 1 0 ack 40 ------- 0 1.0 0.0 97 208
- 0.491536 1 0 ack 40 ------- 0 1.0 0.0 97 208
r 0.492768 0 1 tcp 1540 ------- 0 0.0 1.0 98 189
+ 0.492768 1 0 ack 40 ------- 0 1.0 0.0 98 209
- 0.492768 1 0 ack 40 ------- 0 1.0 0.0 98 209
r 0.494 0 1 tcp 1540 ------- 0 0.0 1.0 99 190
+ 0.494 1 0 ack 40 ------- 0 1.0 0.0 99 210
- 0.494 1 0 ack 40 ------- 0 1.0 0.0 99 210
r 0.495232 0 1 tcp 1540 ------- 0 0.0 1.0 100 191
+ 0.495232 1 0 ack 40 ------- 0 1.0 0.0 100 211
- 0.495232 1 0 ack 40 ------- 0 1.0 0.0 100 211
r 0.496464 0 1 tcp 1540 ------- 0 0.0 1.0 101 192
+ 0.496464 1 0 ack 40 ------- 0 1.0 0.0 101 212
- 0.496464 1 0 ack 40 ------- 0 1.0 0.0 101 212
r 0.497696 0 1 tcp 1540 ------- 0 0.0 1.0 102 193
+ 0.497696 1 0 ack 40 ------- 0 1.0 0.0 102 213
- 0.497696 1 0 ack 40 ------- 0 1.0 0.0 102 213
r 0.498928 0 1 tcp 1540 ------- 0 0.0 1.0 103 194
+ 0.498928 1 0 ack 40 ------- 0 1.0 0.0 103 214
- 0.498928 1 0 ack 40 ------- 0 1.0 0.0 103 214
r 0.50016 0 1 tcp 1540 ------- 0 0.0 1.0 104 195
+ 0.50016 1 0 ack 40 ------- 0 1.0 0.0 104 215
- 0.50016 1 0 ack 40 ------- 0 1.0 0.0 104 215
r 0.501392 0 1 tcp 1540 ------- 0 0.0 1.0 105 196
+ 0.501392 1 0 ack 40 ------- 0 1.0 0.0 105 216
- 0.501392 1 0 ack 40 ------- 0 1.0 0.0 105 216
r 0.502624 0 1 tcp 1540 ------- 0 0.0 1.0 106 197
+ 0.502624 1 0 ack 40 ------- 0 1.0 0.0 106 217
- 0.502624 1 0 ack 40 ------- 0 1.0 0.0 106 217
r 0.503856 0 1 tcp 1540 ------- 0 0.0 1.0 107 198