+ 0.1 0 2 cbr 210 ------- 1 0.1 1073741824.0 0 0
- 0.1 0 2 cbr 210 ------- 1 0.1 1073741824.0 0 0
+ 0.1 1 2 cbr 210 ------- 2 1.1 1073741825.0 0 1
- 0.1 1 2 cbr 210 ------- 2 1.1 1073741825.0 0 1
+ 0.10375 0 2 cbr 210 ------- 1 0.1 1073741824.0 1 2
- 0.10375 0 2 cbr 210 ------- 1 0.1 1073741824.0 1 2
+ 0.10375 1 2 cbr 210 ------- 2 1.1 1073741825.0 1 3
- 0.10375 1 2 cbr 210 ------- 2 1.1 1073741825.0 1 3
r 0.10612 0 2 cbr 210 ------- 1 0.1 1073741824.0 0 0
+ 0.10612 2 1 cbr 210 ------- 1 0.1 1073741824.0 0 0
- 0.10612 2 1 cbr 210 ------- 1 0.1 1073741824.0 0 0
+ 0.10612 2 3 cbr 210 ------- 1 0.1 1073741824.0 0 0
- 0.10612 2 3 cbr 210 ------- 1 0.1 1073741824.0 0 0
r 0.10612 1 2 cbr 210 ------- 2 1.1 1073741825.0 0 1
+ 0.10612 2 3 cbr 210 ------- 2 1.1 1073741825.0 0 1
+ 0.10612 2 0 cbr 210 ------- 2 1.1 1073741825.0 0 1
- 0.10612 2 0 cbr 210 ------- 2 1.1 1073741825.0 0 1
- 0.10724 2 3 cbr 210 ------- 2 1.1 1073741825.0 0 1
+ 0.1075 0 2 cbr 210 ------- 1 0.1 1073741824.0 2 4
- 0.1075 0 2 cbr 210 ------- 1 0.1 1073741824.0 2 4
+ 0.1075 1 2 cbr 210 ------- 2 1.1 1073741825.0 2 5
- 0.1075 1 2 cbr 210 ------- 2 1.1 1073741825.0 2 5
r 0.10987 0 2 cbr 210 ------- 1 0.1 1073741824.0 1 2
+ 0.10987 2 1 cbr 210 ------- 1 0.1 1073741824.0 1 2
- 0.10987 2 1 cbr 210 ------- 1 0.1 1073741824.0 1 2
+ 0.10987 2 3 cbr 210 ------- 1 0.1 1073741824.0 1 2
- 0.10987 2 3 cbr 210 ------- 1 0.1 1073741824.0 1 2
r 0.10987 1 2 cbr 210 ------- 2 1.1 1073741825.0 1 3
+ 0.10987 2 3 cbr 210 ------- 2 1.1 1073741825.0 1 3
+ 0.10987 2 0 cbr 210 ------- 2 1.1 1073741825.0 1 3
- 0.10987 2 0 cbr 210 ------- 2 1.1 1073741825.0 1 3
- 0.11099 2 3 cbr 210 ------- 2 1.1 1073741825.0 1 3
+ 0.11125 0 2 cbr 210 ------- 1 0.1 1073741824.0 3 6
- 0.11125 0 2 cbr 210 ------- 1 0.1 1073741824.0 3 6
+ 0.11125 1 2 cbr 210 ------- 2 1.1 1073741825.0 3 7
- 0.11125 1 2 cbr 210 ------- 2 1.1 1073741825.0 3 7
r 0.11224 2 1 cbr 210 ------- 1 0.1 1073741824.0 0 0
+ 0.11224 1 2 prune 80 ------- 30 1.0 2.0 -1 8
r 0.11224 2 3 cbr 210 ------- 1 0.1 1073741824.0 0 0
+ 0.11224 3 4 cbr 210 ------- 1 0.1 1073741824.0 0 0
- 0.11224 3 4 cbr 210 ------- 1 0.1 1073741824.0 0 0
+ 0.11224 3 7 cbr 210 ------- 1 0.1 1073741824.0 0 0
- 0.11224 3 7 cbr 210 ------- 1 0.1 1073741824.0 0 0
r 0.11224 2 0 cbr 210 ------- 2 1.1 1073741825.0 0 1
+ 0.11224 0 2 prune 80 ------- 30 0.0 2.0 -1 9
- 0.11237 0 2 prune 80 ------- 30 0.0 2.0 -1 9
- 0.11237 1 2 prune 80 ------- 30 1.0 2.0 -1 8
r 0.11336 2 3 cbr 210 ------- 2 1.1 1073741825.0 0 1
+ 0.11336 3 4 cbr 210 ------- 2 1.1 1073741825.0 0 1
+ 0.11336 3 7 cbr 210 ------- 2 1.1 1073741825.0 0 1
- 0.11336 3 4 cbr 210 ------- 2 1.1 1073741825.0 0 1
- 0.11336 3 7 cbr 210 ------- 2 1.1 1073741825.0 0 1
r 0.11362 0 2 cbr 210 ------- 1 0.1 1073741824.0 2 4
+ 0.11362 2 1 cbr 210 ------- 1 0.1 1073741824.0 2 4
- 0.11362 2 1 cbr 210 ------- 1 0.1 1073741824.0 2 4
+ 0.11362 2 3 cbr 210 ------- 1 0.1 1073741824.0 2 4
- 0.11362 2 3 cbr 210 ------- 1 0.1 1073741824.0 2 4
r 0.11362 1 2 cbr 210 ------- 2 1.1 1073741825.0 2 5
+ 0.11362 2 3 cbr 210 ------- 2 1.1 1073741825.0 2 5
+ 0.11362 2 0 cbr 210 ------- 2 1.1 1073741825.0 2 5
- 0.11362 2 0 cbr 210 ------- 2 1.1 1073741825.0 2 5
- 0.11474 2 3 cbr 210 ------- 2 1.1 1073741825.0 2 5
+ 0.115 0 2 cbr 210 ------- 1 0.1 1073741824.0 4 10
- 0.115 0 2 cbr 210 ------- 1 0.1 1073741824.0 4 10
+ 0.115 1 2 cbr 210 ------- 2 1.1 1073741825.0 4 11
- 0.115 1 2 cbr 210 ------- 2 1.1 1073741825.0 4 11
r 0.11599 2 1 cbr 210 ------- 1 0.1 1073741824.0 1 2
+ 0.11599 1 2 prune 80 ------- 30 1.0 2.0 -1 12
r 0.11599 2 3 cbr 210 ------- 1 0.1 1073741824.0 1 2
+ 0.11599 3 4 cbr 210 ------- 1 0.1 1073741824.0 1 2
- 0.11599 3 4 cbr 210 ------- 1 0.1 1073741824.0 1 2
+ 0.11599 3 7 cbr 210 ------- 1 0.1 1073741824.0 1 2
- 0.11599 3 7 cbr 210 ------- 1 0.1 1073741824.0 1 2
r 0.11599 2 0 cbr 210 ------- 2 1.1 1073741825.0 1 3
+ 0.11599 0 2 prune 80 ------- 30 0.0 2.0 -1 13
- 0.11612 0 2 prune 80 ------- 30 0.0 2.0 -1 13
- 0.11612 1 2 prune 80 ------- 30 1.0 2.0 -1 12
r 0.11711 2 3 cbr 210 ------- 2 1.1 1073741825.0 1 3
+ 0.11711 3 4 cbr 210 ------- 2 1.1 1073741825.0 1 3
+ 0.11711 3 7 cbr 210 ------- 2 1.1 1073741825.0 1 3
- 0.11711 3 4 cbr 210 ------- 2 1.1 1073741825.0 1 3
- 0.11711 3 7 cbr 210 ------- 2 1.1 1073741825.0 1 3
r 0.11737 0 2 cbr 210 ------- 1 0.1 1073741824.0 3 6
+ 0.11737 2 1 cbr 210 ------- 1 0.1 1073741824.0 3 6
- 0.11737 2 1 cbr 210 ------- 1 0.1 1073741824.0 3 6
+ 0.11737 2 3 cbr 210 ------- 1 0.1 1073741824.0 3 6
- 0.11737 2 3 cbr 210 ------- 1 0.1 1073741824.0 3 6
r 0.11737 1 2 cbr 210 ------- 2 1.1 1073741825.0 3 7
+ 0.11737 2 3 cbr 210 ------- 2 1.1 1073741825.0 3 7
+ 0.11737 2 0 cbr 210 ------- 2 1.1 1073741825.0 3 7
- 0.11737 2 0 cbr 210 ------- 2 1.1 1073741825.0 3 7
r 0.117797 0 2 prune 80 ------- 30 0.0 2.0 -1 9
r 0.117797 1 2 prune 80 ------- 30 1.0 2.0 -1 8
r 0.11836 3 4 cbr 210 ------- 1 0.1 1073741824.0 0 0
+ 0.11836 4 5 cbr 210 ------- 1 0.1 1073741824.0 0 0
- 0.11836 4 5 cbr 210 ------- 1 0.1 1073741824.0 0 0
+ 0.11836 4 6 cbr 210 ------- 1 0.1 1073741824.0 0 0
- 0.11836 4 6 cbr 210 ------- 1 0.1 1073741824.0 0 0
r 0.11836 3 7 cbr 210 ------- 1 0.1 1073741824.0 0 0
+ 0.11836 7 3 prune 80 ------- 30 7.0 3.0 -1 14
- 0.11836 7 3 prune 80 ------- 30 7.0 3.0 -1 14
- 0.11849 2 3 cbr 210 ------- 2 1.1 1073741825.0 3 7
+ 0.11875 0 2 cbr 210 ------- 1 0.1 1073741824.0 5 15
- 0.11875 0 2 cbr 210 ------- 1 0.1 1073741824.0 5 15
+ 0.11875 1 2 cbr 210 ------- 2 1.1 1073741825.0 5 16
- 0.11875 1 2 cbr 210 ------- 2 1.1 1073741825.0 5 16
r 0.11948 3 4 cbr 210 ------- 2 1.1 1073741825.0 0 1
+ 0.11948 4 5 cbr 210 ------- 2 1.1 1073741825.0 0 1
+ 0.11948 4 6 cbr 210 ------- 2 1.1 1073741825.0 0 1
r 0.11948 3 7 cbr 210 ------- 2 1.1 1073741825.0 0 1
+ 0.11948 7 3 prune 80 ------- 30 7.0 3.0 -1 17
- 0.11948 7 3 prune 80 ------- 30 7.0 3.0 -1 17
- 0.11948 4 5 cbr 210 ------- 2 1.1 1073741825.0 0 1
- 0.11948 4 6 cbr 210 ------- 2 1.1 1073741825.0 0 1
r 0.11974 2 1 cbr 210 ------- 1 0.1 1073741824.0 2 4
+ 0.11974 1 2 prune 80 ------- 30 1.0 2.0 -1 18
r 0.11974 2 3 cbr 210 ------- 1 0.1 1073741824.0 2 4
+ 0.11974 3 4 cbr 210 ------- 1 0.1 1073741824.0 2 4
- 0.11974 3 4 cbr 210 ------- 1 0.1 1073741824.0 2 4
+ 0.11974 3 7 cbr 210 ------- 1 0.1 1073741824.0 2 4
- 0.11974 3 7 cbr 210 ------- 1 0.1 1073741824.0 2 4
r 0.11974 2 0 cbr 210 ------- 2 1.1 1073741825.0 2 5
+ 0.11974 0 2 prune 80 ------- 30 0.0 2.0 -1 19
- 0.11987 0 2 prune 80 ------- 30 0.0 2.0 -1 19
- 0.11987 1 2 prune 80 ------- 30 1.0 2.0 -1 18
r 0.12086 2 3 cbr 210 ------- 2 1.1 1073741825.0 2 5
+ 0.12086 3 4 cbr 210 ------- 2 1.1 1073741825.0 2 5
+ 0.12086 3 7 cbr 210 ------- 2 1.1 1073741825.0 2 5
- 0.12086 3 4 cbr 210 ------- 2 1.1 1073741825.0 2 5
- 0.12086 3 7 cbr 210 ------- 2 1.1 1073741825.0 2 5
r 0.12112 0 2 cbr 210 ------- 1 0.1 1073741824.0 4 10
+ 0.12112 2 3 cbr 210 ------- 1 0.1 1073741824.0 4 10
- 0.12112 2 3 cbr 210 ------- 1 0.1 1073741824.0 4 10
r 0.12112 1 2 cbr 210 ------- 2 1.1 1073741825.0 4 11
+ 0.12112 2 3 cbr 210 ------- 2 1.1 1073741825.0 4 11
r 0.121547 0 2 prune 80 ------- 30 0.0 2.0 -1 13
r 0.121547 1 2 prune 80 ------- 30 1.0 2.0 -1 12
r 0.12211 3 4 cbr 210 ------- 1 0.1 1073741824.0 1 2
+ 0.12211 4 5 cbr 210 ------- 1 0.1 1073741824.0 1 2
- 0.12211 4 5 cbr 210 ------- 1 0.1 1073741824.0 1 2
+ 0.12211 4 6 cbr 210 ------- 1 0.1 1073741824.0 1 2
- 0.12211 4 6 cbr 210 ------- 1 0.1 1073741824.0 1 2
r 0.12211 3 7 cbr 210 ------- 1 0.1 1073741824.0 1 2
+ 0.12211 7 3 prune 80 ------- 30 7.0 3.0 -1 20
- 0.12211 7 3 prune 80 ------- 30 7.0 3.0 -1 20
- 0.12224 2 3 cbr 210 ------- 2 1.1 1073741825.0 4 11
+ 0.1225 0 2 cbr 210 ------- 1 0.1 1073741824.0 6 21
- 0.1225 0 2 cbr 210 ------- 1 0.1 1073741824.0 6 21
+ 0.1225 1 2 cbr 210 ------- 2 1.1 1073741825.0 6 22
- 0.1225 1 2 cbr 210 ------- 2 1.1 1073741825.0 6 22
r 0.12323 3 4 cbr 210 ------- 2 1.1 1073741825.0 1 3
+ 0.12323 4 5 cbr 210 ------- 2 1.1 1073741825.0 1 3
+ 0.12323 4 6 cbr 210 ------- 2 1.1 1073741825.0 1 3
r 0.12323 3 7 cbr 210 ------- 2 1.1 1073741825.0 1 3
+ 0.12323 7 3 prune 80 ------- 30 7.0 3.0 -1 23
- 0.12323 7 3 prune 80 ------- 30 7.0 3.0 -1 23
- 0.12323 4 5 cbr 210 ------- 2 1.1 1073741825.0 1 3
- 0.12323 4 6 cbr 210 ------- 2 1.1 1073741825.0 1 3
r 0.12349 2 1 cbr 210 ------- 1 0.1 1073741824.0 3 6
+ 0.12349 1 2 prune 80 ------- 30 1.0 2.0 -1 24
r 0.12349 2 3 cbr 210 ------- 1 0.1 1073741824.0 3 6
+ 0.12349 3 4 cbr 210 ------- 1 0.1 1073741824.0 3 6
- 0.12349 3 4 cbr 210 ------- 1 0.1 1073741824.0 3 6
+ 0.12349 3 7 cbr 210 ------- 1 0.1 1073741824.0 3 6
- 0.12349 3 7 cbr 210 ------- 1 0.1 1073741824.0 3 6
r 0.12349 2 0 cbr 210 ------- 2 1.1 1073741825.0 3 7
+ 0.12349 0 2 prune 80 ------- 30 0.0 2.0 -1 25
- 0.12362 0 2 prune 80 ------- 30 0.0 2.0 -1 25
- 0.12362 1 2 prune 80 ------- 30 1.0 2.0 -1 24
r 0.123787 7 3 prune 80 ------- 30 7.0 3.0 -1 14
r 0.12448 4 5 cbr 210 ------- 1 0.1 1073741824.0 0 0
+ 0.12448 5 4 prune 80 ------- 30 5.0 4.0 -1 26
- 0.12448 5 4 prune 80 ------- 30 5.0 4.0 -1 26
r 0.12448 4 6 cbr 210 ------- 1 0.1 1073741824.0 0 0
+ 0.12448 6 4 prune 80 ------- 30 6.0 4.0 -1 27
- 0.12448 6 4 prune 80 ------- 30 6.0 4.0 -1 27
r 0.12461 2 3 cbr 210 ------- 2 1.1 1073741825.0 3 7
+ 0.12461 3 4 cbr 210 ------- 2 1.1 1073741825.0 3 7
+ 0.12461 3 7 cbr 210 ------- 2 1.1 1073741825.0 3 7
- 0.12461 3 4 cbr 210 ------- 2 1.1 1073741825.0 3 7
- 0.12461 3 7 cbr 210 ------- 2 1.1 1073741825.0 3 7
r 0.12487 0 2 cbr 210 ------- 1 0.1 1073741824.0 5 15
+ 0.12487 2 3 cbr 210 ------- 1 0.1 1073741824.0 5 15
- 0.12487 2 3 cbr 210 ------- 1 0.1 1073741824.0 5 15
r 0.12487 1 2 cbr 210 ------- 2 1.1 1073741825.0 5 16
+ 0.12487 2 3 cbr 210 ------- 2 1.1 1073741825.0 5 16
r 0.124907 7 3 prune 80 ------- 30 7.0 3.0 -1 17
r 0.125297 0 2 prune 80 ------- 30 0.0 2.0 -1 19
r 0.125297 1 2 prune 80 ------- 30 1.0 2.0 -1 18
r 0.1256 4 5 cbr 210 ------- 2 1.1 1073741825.0 0 1
+ 0.1256 5 4 prune 80 ------- 30 5.0 4.0 -1 28
- 0.1256 5 4 prune 80 ------- 30 5.0 4.0 -1 28
r 0.1256 4 6 cbr 210 ------- 2 1.1 1073741825.0 0 1
+ 0.1256 6 4 prune 80 ------- 30 6.0 4.0 -1 29
- 0.1256 6 4 prune 80 ------- 30 6.0 4.0 -1 29
r 0.12586 3 4 cbr 210 ------- 1 0.1 1073741824.0 2 4
+ 0.12586 4 5 cbr 210 ------- 1 0.1 1073741824.0 2 4
- 0.12586 4 5 cbr 210 ------- 1 0.1 1073741824.0 2 4
+ 0.12586 4 6 cbr 210 ------- 1 0.1 1073741824.0 2 4
- 0.12586 4 6 cbr 210 ------- 1 0.1 1073741824.0 2 4
r 0.12586 3 7 cbr 210 ------- 1 0.1 1073741824.0 2 4
+ 0.12586 7 3 prune 80 ------- 30 7.0 3.0 -1 30
- 0.12586 7 3 prune 80 ------- 30 7.0 3.0 -1 30
- 0.12599 2 3 cbr 210 ------- 2 1.1 1073741825.0 5 16
+ 0.12625 0 2 cbr 210 ------- 1 0.1 1073741824.0 7 31
- 0.12625 0 2 cbr 210 ------- 1 0.1 1073741824.0 7 31
+ 0.12625 1 2 cbr 210 ------- 2 1.1 1073741825.0 7 32
- 0.12625 1 2 cbr 210 ------- 2 1.1 1073741825.0 7 32
r 0.12698 3 4 cbr 210 ------- 2 1.1 1073741825.0 2 5
+ 0.12698 4 5 cbr 210 ------- 2 1.1 1073741825.0 2 5
+ 0.12698 4 6 cbr 210 ------- 2 1.1 1073741825.0 2 5
r 0.12698 3 7 cbr 210 ------- 2 1.1 1073741825.0 2 5
+ 0.12698 7 3 prune 80 ------- 30 7.0 3.0 -1 33
- 0.12698 7 3 prune 80 ------- 30 7.0 3.0 -1 33
- 0.12698 4 5 cbr 210 ------- 2 1.1 1073741825.0 2 5
- 0.12698 4 6 cbr 210 ------- 2 1.1 1073741825.0 2 5
r 0.12724 2 3 cbr 210 ------- 1 0.1 1073741824.0 4 10
+ 0.12724 3 4 cbr 210 ------- 1 0.1 1073741824.0 4 10
- 0.12724 3 4 cbr 210 ------- 1 0.1 1073741824.0 4 10
r 0.127537 7 3 prune 80 ------- 30 7.0 3.0 -1 20
r 0.12823 4 5 cbr 210 ------- 1 0.1 1073741824.0 1 2
+ 0.12823 5 4 prune 80 ------- 30 5.0 4.0 -1 34
- 0.12823 5 4 prune 80 ------- 30 5.0 4.0 -1 34
r 0.12823 4 6 cbr 210 ------- 1 0.1 1073741824.0 1 2
+ 0.12823 6 4 prune 80 ------- 30 6.0 4.0 -1 35
- 0.12823 6 4 prune 80 ------- 30 6.0 4.0 -1 35
r 0.12836 2 3 cbr 210 ------- 2 1.1 1073741825.0 4 11
+ 0.12836 3 4 cbr 210 ------- 2 1.1 1073741825.0 4 11
- 0.12836 3 4 cbr 210 ------- 2 1.1 1073741825.0 4 11
r 0.12862 0 2 cbr 210 ------- 1 0.1 1073741824.0 6 21
+ 0.12862 2 3 cbr 210 ------- 1 0.1 1073741824.0 6 21
- 0.12862 2 3 cbr 210 ------- 1 0.1 1073741824.0 6 21
r 0.12862 1 2 cbr 210 ------- 2 1.1 1073741825.0 6 22
+ 0.12862 2 3 cbr 210 ------- 2 1.1 1073741825.0 6 22
r 0.128657 7 3 prune 80 ------- 30 7.0 3.0 -1 23
r 0.129047 0 2 prune 80 ------- 30 0.0 2.0 -1 25
r 0.129047 1 2 prune 80 ------- 30 1.0 2.0 -1 24
r 0.12935 4 5 cbr 210 ------- 2 1.1 1073741825.0 1 3
+ 0.12935 5 4 prune 80 ------- 30 5.0 4.0 -1 36
- 0.12935 5 4 prune 80 ------- 30 5.0 4.0 -1 36
r 0.12935 4 6 cbr 210 ------- 2 1.1 1073741825.0 1 3
+ 0.12935 6 4 prune 80 ------- 30 6.0 4.0 -1 37
- 0.12935 6 4 prune 80 ------- 30 6.0 4.0 -1 37
r 0.12961 3 4 cbr 210 ------- 1 0.1 1073741824.0 3 6
+ 0.12961 4 5 cbr 210 ------- 1 0.1 1073741824.0 3 6
- 0.12961 4 5 cbr 210 ------- 1 0.1 1073741824.0 3 6
+ 0.12961 4 6 cbr 210 ------- 1 0.1 1073741824.0 3 6
- 0.12961 4 6 cbr 210 ------- 1 0.1 1073741824.0 3 6
r 0.12961 3 7 cbr 210 ------- 1 0.1 1073741824.0 3 6
+ 0.12961 7 3 prune 80 ------- 30 7.0 3.0 -1 38
- 0.12961 7 3 prune 80 ------- 30 7.0 3.0 -1 38
- 0.12974 2 3 cbr 210 ------- 2 1.1 1073741825.0 6 22
r 0.129907 5 4 prune 80 ------- 30 5.0 4.0 -1 26
r 0.129907 6 4 prune 80 ------- 30 6.0 4.0 -1 27
+ 0.129907 4 3 prune 80 ------- 30 4.0 3.0 -1 39
- 0.129907 4 3 prune 80 ------- 30 4.0 3.0 -1 39
+ 0.13 0 2 cbr 210 ------- 1 0.1 1073741824.0 8 40
- 0.13 0 2 cbr 210 ------- 1 0.1 1073741824.0 8 40
+ 0.13 1 2 cbr 210 ------- 2 1.1 1073741825.0 8 41
- 0.13 1 2 cbr 210 ------- 2 1.1 1073741825.0 8 41
r 0.13073 3 4 cbr 210 ------- 2 1.1 1073741825.0 3 7
+ 0.13073 4 5 cbr 210 ------- 2 1.1 1073741825.0 3 7
+ 0.13073 4 6 cbr 210 ------- 2 1.1 1073741825.0 3 7
r 0.13073 3 7 cbr 210 ------- 2 1.1 1073741825.0 3 7
+ 0.13073 7 3 prune 80 ------- 30 7.0 3.0 -1 42
- 0.13073 7 3 prune 80 ------- 30 7.0 3.0 -1 42
- 0.13073 4 5 cbr 210 ------- 2 1.1 1073741825.0 3 7
- 0.13073 4 6 cbr 210 ------- 2 1.1 1073741825.0 3 7
r 0.13099 2 3 cbr 210 ------- 1 0.1 1073741824.0 5 15
+ 0.13099 3 4 cbr 210 ------- 1 0.1 1073741824.0 5 15
- 0.13099 3 4 cbr 210 ------- 1 0.1 1073741824.0 5 15
r 0.131027 5 4 prune 80 ------- 30 5.0 4.0 -1 28
r 0.131027 6 4 prune 80 ------- 30 6.0 4.0 -1 29
+ 0.131027 4 3 prune 80 ------- 30 4.0 3.0 -1 43
- 0.131027 4 3 prune 80 ------- 30 4.0 3.0 -1 43
r 0.131287 7 3 prune 80 ------- 30 7.0 3.0 -1 30
r 0.13198 4 5 cbr 210 ------- 1 0.1 1073741824.0 2 4
+ 0.13198 5 4 prune 80 ------- 30 5.0 4.0 -1 44
- 0.13198 5 4 prune 80 ------- 30 5.0 4.0 -1 44
r 0.13198 4 6 cbr 210 ------- 1 0.1 1073741824.0 2 4
+ 0.13198 6 4 prune 80 ------- 30 6.0 4.0 -1 45
- 0.13198 6 4 prune 80 ------- 30 6.0 4.0 -1 45
r 0.13211 2 3 cbr 210 ------- 2 1.1 1073741825.0 5 16
+ 0.13211 3 4 cbr 210 ------- 2 1.1 1073741825.0 5 16
- 0.13211 3 4 cbr 210 ------- 2 1.1 1073741825.0 5 16
r 0.13237 0 2 cbr 210 ------- 1 0.1 1073741824.0 7 31
+ 0.13237 2 3 cbr 210 ------- 1 0.1 1073741824.0 7 31
- 0.13237 2 3 cbr 210 ------- 1 0.1 1073741824.0 7 31
r 0.13237 1 2 cbr 210 ------- 2 1.1 1073741825.0 7 32
+ 0.13237 2 3 cbr 210 ------- 2 1.1 1073741825.0 7 32
r 0.132407 7 3 prune 80 ------- 30 7.0 3.0 -1 33
r 0.1331 4 5 cbr 210 ------- 2 1.1 1073741825.0 2 5
+ 0.1331 5 4 prune 80 ------- 30 5.0 4.0 -1 46
- 0.1331 5 4 prune 80 ------- 30 5.0 4.0 -1 46
r 0.1331 4 6 cbr 210 ------- 2 1.1 1073741825.0 2 5
+ 0.1331 6 4 prune 80 ------- 30 6.0 4.0 -1 47
- 0.1331 6 4 prune 80 ------- 30 6.0 4.0 -1 47
r 0.13336 3 4 cbr 210 ------- 1 0.1 1073741824.0 4 10
+ 0.13336 4 3 prune 80 ------- 30 4.0 3.0 -1 48
- 0.13336 4 3 prune 80 ------- 30 4.0 3.0 -1 48
- 0.13349 2 3 cbr 210 ------- 2 1.1 1073741825.0 7 32
r 0.133657 5 4 prune 80 ------- 30 5.0 4.0 -1 34
r 0.133657 6 4 prune 80 ------- 30 6.0 4.0 -1 35
+ 0.13375 0 2 cbr 210 ------- 1 0.1 1073741824.0 9 49
- 0.13375 0 2 cbr 210 ------- 1 0.1 1073741824.0 9 49
+ 0.13375 1 2 cbr 210 ------- 2 1.1 1073741825.0 9 50
- 0.13375 1 2 cbr 210 ------- 2 1.1 1073741825.0 9 50
r 0.13448 3 4 cbr 210 ------- 2 1.1 1073741825.0 4 11
+ 0.13448 4 3 prune 80 ------- 30 4.0 3.0 -1 51
- 0.13448 4 3 prune 80 ------- 30 4.0 3.0 -1 51
r 0.13474 2 3 cbr 210 ------- 1 0.1 1073741824.0 6 21
+ 0.13474 3 4 cbr 210 ------- 1 0.1 1073741824.0 6 21
- 0.13474 3 4 cbr 210 ------- 1 0.1 1073741824.0 6 21
r 0.134777 5 4 prune 80 ------- 30 5.0 4.0 -1 36
r 0.134777 6 4 prune 80 ------- 30 6.0 4.0 -1 37
r 0.135037 7 3 prune 80 ------- 30 7.0 3.0 -1 38
r 0.135333 4 3 prune 80 ------- 30 4.0 3.0 -1 39
+ 0.135333 3 2 prune 80 ------- 30 3.0 2.0 -1 52
- 0.135333 3 2 prune 80 ------- 30 3.0 2.0 -1 52
r 0.13573 4 5 cbr 210 ------- 1 0.1 1073741824.0 3 6
+ 0.13573 5 4 prune 80 ------- 30 5.0 4.0 -1 53
- 0.13573 5 4 prune 80 ------- 30 5.0 4.0 -1 53
r 0.13573 4 6 cbr 210 ------- 1 0.1 1073741824.0 3 6
+ 0.13573 6 4 prune 80 ------- 30 6.0 4.0 -1 54
- 0.13573 6 4 prune 80 ------- 30 6.0 4.0 -1 54
r 0.13586 2 3 cbr 210 ------- 2 1.1 1073741825.0 6 22
+ 0.13586 3 4 cbr 210 ------- 2 1.1 1073741825.0 6 22
- 0.13586 3 4 cbr 210 ------- 2 1.1 1073741825.0 6 22
r 0.13612 0 2 cbr 210 ------- 1 0.1 1073741824.0 8 40
+ 0.13612 2 3 cbr 210 ------- 1 0.1 1073741824.0 8 40
- 0.13612 2 3 cbr 210 ------- 1 0.1 1073741824.0 8 40
r 0.13612 1 2 cbr 210 ------- 2 1.1 1073741825.0 8 41
+ 0.13612 2 3 cbr 210 ------- 2 1.1 1073741825.0 8 41
r 0.136157 7 3 prune 80 ------- 30 7.0 3.0 -1 42
r 0.136453 4 3 prune 80 ------- 30 4.0 3.0 -1 43
+ 0.136453 3 2 prune 80 ------- 30 3.0 2.0 -1 55
- 0.136453 3 2 prune 80 ------- 30 3.0 2.0 -1 55
r 0.13685 4 5 cbr 210 ------- 2 1.1 1073741825.0 3 7
+ 0.13685 5 4 prune 80 ------- 30 5.0 4.0 -1 56
- 0.13685 5 4 prune 80 ------- 30 5.0 4.0 -1 56
r 0.13685 4 6 cbr 210 ------- 2 1.1 1073741825.0 3 7
+ 0.13685 6 4 prune 80 ------- 30 6.0 4.0 -1 57
- 0.13685 6 4 prune 80 ------- 30 6.0 4.0 -1 57
r 0.13711 3 4 cbr 210 ------- 1 0.1 1073741824.0 5 15
+ 0.13711 4 3 prune 80 ------- 30 4.0 3.0 -1 58
- 0.13711 4 3 prune 80 ------- 30 4.0 3.0 -1 58
- 0.13724 2 3 cbr 210 ------- 2 1.1 1073741825.0 8 41
r 0.137407 5 4 prune 80 ------- 30 5.0 4.0 -1 44
r 0.137407 6 4 prune 80 ------- 30 6.0 4.0 -1 45
+ 0.1375 0 2 cbr 210 ------- 1 0.1 1073741824.0 10 59
- 0.1375 0 2 cbr 210 ------- 1 0.1 1073741824.0 10 59
+ 0.1375 1 2 cbr 210 ------- 2 1.1 1073741825.0 10 60
- 0.1375 1 2 cbr 210 ------- 2 1.1 1073741825.0 10 60
r 0.13823 3 4 cbr 210 ------- 2 1.1 1073741825.0 5 16
+ 0.13823 4 3 prune 80 ------- 30 4.0 3.0 -1 61
- 0.13823 4 3 prune 80 ------- 30 4.0 3.0 -1 61
r 0.13849 2 3 cbr 210 ------- 1 0.1 1073741824.0 7 31
+ 0.13849 3 2 prune 80 ------- 30 3.0 2.0 -1 62
- 0.13849 3 2 prune 80 ------- 30 3.0 2.0 -1 62
r 0.138527 5 4 prune 80 ------- 30 5.0 4.0 -1 46
r 0.138527 6 4 prune 80 ------- 30 6.0 4.0 -1 47
r 0.138787 4 3 prune 80 ------- 30 4.0 3.0 -1 48
r 0.13961 2 3 cbr 210 ------- 2 1.1 1073741825.0 7 32
+ 0.13961 3 2 prune 80 ------- 30 3.0 2.0 -1 63
- 0.13961 3 2 prune 80 ------- 30 3.0 2.0 -1 63
r 0.13987 0 2 cbr 210 ------- 1 0.1 1073741824.0 9 49
+ 0.13987 2 3 cbr 210 ------- 1 0.1 1073741824.0 9 49
- 0.13987 2 3 cbr 210 ------- 1 0.1 1073741824.0 9 49
r 0.13987 1 2 cbr 210 ------- 2 1.1 1073741825.0 9 50
+ 0.13987 2 3 cbr 210 ------- 2 1.1 1073741825.0 9 50
r 0.139907 4 3 prune 80 ------- 30 4.0 3.0 -1 51
r 0.14076 3 2 prune 80 ------- 30 3.0 2.0 -1 52
+ 0.14076 2 0 prune 80 ------- 30 2.0 0.0 -1 64
- 0.14076 2 0 prune 80 ------- 30 2.0 0.0 -1 64
r 0.14086 3 4 cbr 210 ------- 1 0.1 1073741824.0 6 21
+ 0.14086 4 3 prune 80 ------- 30 4.0 3.0 -1 65
- 0.14086 4 3 prune 80 ------- 30 4.0 3.0 -1 65
- 0.14099 2 3 cbr 210 ------- 2 1.1 1073741825.0 9 50
r 0.141157 5 4 prune 80 ------- 30 5.0 4.0 -1 53
r 0.141157 6 4 prune 80 ------- 30 6.0 4.0 -1 54
+ 0.14125 0 2 cbr 210 ------- 1 0.1 1073741824.0 11 66
- 0.14125 0 2 cbr 210 ------- 1 0.1 1073741824.0 11 66
+ 0.14125 1 2 cbr 210 ------- 2 1.1 1073741825.0 11 67
- 0.14125 1 2 cbr 210 ------- 2 1.1 1073741825.0 11 67
r 0.14188 3 2 prune 80 ------- 30 3.0 2.0 -1 55
+ 0.14188 2 1 prune 80 ------- 30 2.0 1.0 -1 68
- 0.14188 2 1 prune 80 ------- 30 2.0 1.0 -1 68
r 0.14198 3 4 cbr 210 ------- 2 1.1 1073741825.0 6 22
+ 0.14198 4 3 prune 80 ------- 30 4.0 3.0 -1 69
- 0.14198 4 3 prune 80 ------- 30 4.0 3.0 -1 69
r 0.14224 2 3 cbr 210 ------- 1 0.1 1073741824.0 8 40
+ 0.14224 3 2 prune 80 ------- 30 3.0 2.0 -1 70
- 0.14224 3 2 prune 80 ------- 30 3.0 2.0 -1 70
r 0.142277 5 4 prune 80 ------- 30 5.0 4.0 -1 56
r 0.142277 6 4 prune 80 ------- 30 6.0 4.0 -1 57
r 0.142537 4 3 prune 80 ------- 30 4.0 3.0 -1 58
r 0.14336 2 3 cbr 210 ------- 2 1.1 1073741825.0 8 41
+ 0.14336 3 2 prune 80 ------- 30 3.0 2.0 -1 71
- 0.14336 3 2 prune 80 ------- 30 3.0 2.0 -1 71
r 0.14362 0 2 cbr 210 ------- 1 0.1 1073741824.0 10 59
+ 0.14362 2 0 prune 80 ------- 30 2.0 0.0 -1 72
- 0.14362 2 0 prune 80 ------- 30 2.0 0.0 -1 72
r 0.14362 1 2 cbr 210 ------- 2 1.1 1073741825.0 10 60
+ 0.14362 2 1 prune 80 ------- 30 2.0 1.0 -1 73
- 0.14362 2 1 prune 80 ------- 30 2.0 1.0 -1 73
r 0.143657 4 3 prune 80 ------- 30 4.0 3.0 -1 61
r 0.143917 3 2 prune 80 ------- 30 3.0 2.0 -1 62
+ 0.145 0 2 cbr 210 ------- 1 0.1 1073741824.0 12 74
- 0.145 0 2 cbr 210 ------- 1 0.1 1073741824.0 12 74
+ 0.145 1 2 cbr 210 ------- 2 1.1 1073741825.0 12 75
- 0.145 1 2 cbr 210 ------- 2 1.1 1073741825.0 12 75
r 0.145037 3 2 prune 80 ------- 30 3.0 2.0 -1 63
r 0.14599 2 3 cbr 210 ------- 1 0.1 1073741824.0 9 49
+ 0.14599 3 2 prune 80 ------- 30 3.0 2.0 -1 76
- 0.14599 3 2 prune 80 ------- 30 3.0 2.0 -1 76
r 0.146187 2 0 prune 80 ------- 30 2.0 0.0 -1 64
r 0.146287 4 3 prune 80 ------- 30 4.0 3.0 -1 65
r 0.14711 2 3 cbr 210 ------- 2 1.1 1073741825.0 9 50
+ 0.14711 3 2 prune 80 ------- 30 3.0 2.0 -1 77
- 0.14711 3 2 prune 80 ------- 30 3.0 2.0 -1 77
r 0.147307 2 1 prune 80 ------- 30 2.0 1.0 -1 68
r 0.14737 0 2 cbr 210 ------- 1 0.1 1073741824.0 11 66
+ 0.14737 2 0 prune 80 ------- 30 2.0 0.0 -1 78
- 0.14737 2 0 prune 80 ------- 30 2.0 0.0 -1 78
r 0.14737 1 2 cbr 210 ------- 2 1.1 1073741825.0 11 67
+ 0.14737 2 1 prune 80 ------- 30 2.0 1.0 -1 79
- 0.14737 2 1 prune 80 ------- 30 2.0 1.0 -1 79
r 0.147407 4 3 prune 80 ------- 30 4.0 3.0 -1 69
r 0.147667 3 2 prune 80 ------- 30 3.0 2.0 -1 70
r 0.148787 3 2 prune 80 ------- 30 3.0 2.0 -1 71
r 0.149047 2 0 prune 80 ------- 30 2.0 0.0 -1 72
r 0.149047 2 1 prune 80 ------- 30 2.0 1.0 -1 73
r 0.15112 0 2 cbr 210 ------- 1 0.1 1073741824.0 12 74
+ 0.15112 2 0 prune 80 ------- 30 2.0 0.0 -1 82
- 0.15112 2 0 prune 80 ------- 30 2.0 0.0 -1 82
r 0.15112 1 2 cbr 210 ------- 2 1.1 1073741825.0 12 75
+ 0.15112 2 1 prune 80 ------- 30 2.0 1.0 -1 83
- 0.15112 2 1 prune 80 ------- 30 2.0 1.0 -1 83
r 0.151417 3 2 prune 80 ------- 30 3.0 2.0 -1 76
r 0.152537 3 2 prune 80 ------- 30 3.0 2.0 -1 77
r 0.152797 2 0 prune 80 ------- 30 2.0 0.0 -1 78
r 0.152797 2 1 prune 80 ------- 30 2.0 1.0 -1 79
r 0.156547 2 0 prune 80 ------- 30 2.0 0.0 -1 82
r 0.156547 2 1 prune 80 ------- 30 2.0 1.0 -1 83
+ 0.65875 0 2 cbr 210 ------- 1 0.1 1073741824.0 149 354
- 0.65875 0 2 cbr 210 ------- 1 0.1 1073741824.0 149 354
+ 0.65875 1 2 cbr 210 ------- 2 1.1 1073741825.0 149 355
- 0.65875 1 2 cbr 210 ------- 2 1.1 1073741825.0 149 355
+ 0.6625 0 2 cbr 210 ------- 1 0.1 1073741824.0 150 356
- 0.6625 0 2 cbr 210 ------- 1 0.1 1073741824.0 150 356
+ 0.6625 1 2 cbr 210 ------- 2 1.1 1073741825.0 150 357
- 0.6625 1 2 cbr 210 ------- 2 1.1 1073741825.0 150 357
r 0.66487 0 2 cbr 210 ------- 1 0.1 1073741824.0 149 354
+ 0.66487 2 1 cbr 210 ------- 1 0.1 1073741824.0 149 354
- 0.66487 2 1 cbr 210 ------- 1 0.1 1073741824.0 149 354
+ 0.66487 2 3 cbr 210 ------- 1 0.1 1073741824.0 149 354
- 0.66487 2 3 cbr 210 ------- 1 0.1 1073741824.0 149 354
r 0.66487 1 2 cbr 210 ------- 2 1.1 1073741825.0 149 355
+ 0.66487 2 0 cbr 210 ------- 2 1.1 1073741825.0 149 355
- 0.66487 2 0 cbr 210 ------- 2 1.1 1073741825.0 149 355
+ 0.66487 2 3 cbr 210 ------- 2 1.1 1073741825.0 149 355
- 0.66599 2 3 cbr 210 ------- 2 1.1 1073741825.0 149 355
+ 0.66625 0 2 cbr 210 ------- 1 0.1 1073741824.0 151 358
- 0.66625 0 2 cbr 210 ------- 1 0.1 1073741824.0 151 358
+ 0.66625 1 2 cbr 210 ------- 2 1.1 1073741825.0 151 359
- 0.66625 1 2 cbr 210 ------- 2 1.1 1073741825.0 151 359
r 0.66862 0 2 cbr 210 ------- 1 0.1 1073741824.0 150 356
+ 0.66862 2 1 cbr 210 ------- 1 0.1 1073741824.0 150 356
- 0.66862 2 1 cbr 210 ------- 1 0.1 1073741824.0 150 356
+ 0.66862 2 3 cbr 210 ------- 1 0.1 1073741824.0 150 356
- 0.66862 2 3 cbr 210 ------- 1 0.1 1073741824.0 150 356
r 0.66862 1 2 cbr 210 ------- 2 1.1 1073741825.0 150 357
+ 0.66862 2 0 cbr 210 ------- 2 1.1 1073741825.0 150 357
- 0.66862 2 0 cbr 210 ------- 2 1.1 1073741825.0 150 357
+ 0.66862 2 3 cbr 210 ------- 2 1.1 1073741825.0 150 357
- 0.66974 2 3 cbr 210 ------- 2 1.1 1073741825.0 150 357
+ 0.67 0 2 cbr 210 ------- 1 0.1 1073741824.0 152 360
- 0.67 0 2 cbr 210 ------- 1 0.1 1073741824.0 152 360
+ 0.67 1 2 cbr 210 ------- 2 1.1 1073741825.0 152 361
- 0.67 1 2 cbr 210 ------- 2 1.1 1073741825.0 152 361
r 0.67099 2 1 cbr 210 ------- 1 0.1 1073741824.0 149 354
+ 0.67099 1 2 prune 80 ------- 30 1.0 2.0 -1 362
r 0.67099 2 3 cbr 210 ------- 1 0.1 1073741824.0 149 354
+ 0.67099 3 7 cbr 210 ------- 1 0.1 1073741824.0 149 354
- 0.67099 3 7 cbr 210 ------- 1 0.1 1073741824.0 149 354
+ 0.67099 3 4 cbr 210 ------- 1 0.1 1073741824.0 149 354
- 0.67099 3 4 cbr 210 ------- 1 0.1 1073741824.0 149 354
r 0.67099 2 0 cbr 210 ------- 2 1.1 1073741825.0 149 355
+ 0.67099 0 2 prune 80 ------- 30 0.0 2.0 -1 363
- 0.67112 0 2 prune 80 ------- 30 0.0 2.0 -1 363
- 0.67112 1 2 prune 80 ------- 30 1.0 2.0 -1 362
r 0.67211 2 3 cbr 210 ------- 2 1.1 1073741825.0 149 355
+ 0.67211 3 7 cbr 210 ------- 2 1.1 1073741825.0 149 355
+ 0.67211 3 4 cbr 210 ------- 2 1.1 1073741825.0 149 355
- 0.67211 3 7 cbr 210 ------- 2 1.1 1073741825.0 149 355
- 0.67211 3 4 cbr 210 ------- 2 1.1 1073741825.0 149 355
r 0.67237 0 2 cbr 210 ------- 1 0.1 1073741824.0 151 358
+ 0.67237 2 1 cbr 210 ------- 1 0.1 1073741824.0 151 358
- 0.67237 2 1 cbr 210 ------- 1 0.1 1073741824.0 151 358
+ 0.67237 2 3 cbr 210 ------- 1 0.1 1073741824.0 151 358
- 0.67237 2 3 cbr 210 ------- 1 0.1 1073741824.0 151 358
r 0.67237 1 2 cbr 210 ------- 2 1.1 1073741825.0 151 359
+ 0.67237 2 0 cbr 210 ------- 2 1.1 1073741825.0 151 359
- 0.67237 2 0 cbr 210 ------- 2 1.1 1073741825.0 151 359
+ 0.67237 2 3 cbr 210 ------- 2 1.1 1073741825.0 151 359
- 0.67349 2 3 cbr 210 ------- 2 1.1 1073741825.0 151 359
+ 0.67375 0 2 cbr 210 ------- 1 0.1 1073741824.0 153 364
- 0.67375 0 2 cbr 210 ------- 1 0.1 1073741824.0 153 364
+ 0.67375 1 2 cbr 210 ------- 2 1.1 1073741825.0 153 365
- 0.67375 1 2 cbr 210 ------- 2 1.1 1073741825.0 153 365
r 0.67474 2 1 cbr 210 ------- 1 0.1 1073741824.0 150 356
+ 0.67474 1 2 prune 80 ------- 30 1.0 2.0 -1 366
r 0.67474 2 3 cbr 210 ------- 1 0.1 1073741824.0 150 356
+ 0.67474 3 7 cbr 210 ------- 1 0.1 1073741824.0 150 356
- 0.67474 3 7 cbr 210 ------- 1 0.1 1073741824.0 150 356
+ 0.67474 3 4 cbr 210 ------- 1 0.1 1073741824.0 150 356
- 0.67474 3 4 cbr 210 ------- 1 0.1 1073741824.0 150 356
r 0.67474 2 0 cbr 210 ------- 2 1.1 1073741825.0 150 357
+ 0.67474 0 2 prune 80 ------- 30 0.0 2.0 -1 367
- 0.67487 0 2 prune 80 ------- 30 0.0 2.0 -1 367
- 0.67487 1 2 prune 80 ------- 30 1.0 2.0 -1 366
r 0.67586 2 3 cbr 210 ------- 2 1.1 1073741825.0 150 357
+ 0.67586 3 7 cbr 210 ------- 2 1.1 1073741825.0 150 357
+ 0.67586 3 4 cbr 210 ------- 2 1.1 1073741825.0 150 357
- 0.67586 3 7 cbr 210 ------- 2 1.1 1073741825.0 150 357
- 0.67586 3 4 cbr 210 ------- 2 1.1 1073741825.0 150 357
r 0.67612 0 2 cbr 210 ------- 1 0.1 1073741824.0 152 360
+ 0.67612 2 1 cbr 210 ------- 1 0.1 1073741824.0 152 360
- 0.67612 2 1 cbr 210 ------- 1 0.1 1073741824.0 152 360
+ 0.67612 2 3 cbr 210 ------- 1 0.1 1073741824.0 152 360
- 0.67612 2 3 cbr 210 ------- 1 0.1 1073741824.0 152 360
r 0.67612 1 2 cbr 210 ------- 2 1.1 1073741825.0 152 361
+ 0.67612 2 0 cbr 210 ------- 2 1.1 1073741825.0 152 361
- 0.67612 2 0 cbr 210 ------- 2 1.1 1073741825.0 152 361
+ 0.67612 2 3 cbr 210 ------- 2 1.1 1073741825.0 152 361
r 0.676547 0 2 prune 80 ------- 30 0.0 2.0 -1 363
r 0.676547 1 2 prune 80 ------- 30 1.0 2.0 -1 362
r 0.67711 3 7 cbr 210 ------- 1 0.1 1073741824.0 149 354
+ 0.67711 7 3 prune 80 ------- 30 7.0 3.0 -1 368
- 0.67711 7 3 prune 80 ------- 30 7.0 3.0 -1 368
r 0.67711 3 4 cbr 210 ------- 1 0.1 1073741824.0 149 354
+ 0.67711 4 5 cbr 210 ------- 1 0.1 1073741824.0 149 354
- 0.67711 4 5 cbr 210 ------- 1 0.1 1073741824.0 149 354
+ 0.67711 4 6 cbr 210 ------- 1 0.1 1073741824.0 149 354
- 0.67711 4 6 cbr 210 ------- 1 0.1 1073741824.0 149 354
- 0.67724 2 3 cbr 210 ------- 2 1.1 1073741825.0 152 361
+ 0.6775 0 2 cbr 210 ------- 1 0.1 1073741824.0 154 369
- 0.6775 0 2 cbr 210 ------- 1 0.1 1073741824.0 154 369
+ 0.6775 1 2 cbr 210 ------- 2 1.1 1073741825.0 154 370
- 0.6775 1 2 cbr 210 ------- 2 1.1 1073741825.0 154 370
r 0.67823 3 7 cbr 210 ------- 2 1.1 1073741825.0 149 355
+ 0.67823 7 3 prune 80 ------- 30 7.0 3.0 -1 371
- 0.67823 7 3 prune 80 ------- 30 7.0 3.0 -1 371
r 0.67823 3 4 cbr 210 ------- 2 1.1 1073741825.0 149 355
+ 0.67823 4 5 cbr 210 ------- 2 1.1 1073741825.0 149 355
+ 0.67823 4 6 cbr 210 ------- 2 1.1 1073741825.0 149 355
- 0.67823 4 5 cbr 210 ------- 2 1.1 1073741825.0 149 355
- 0.67823 4 6 cbr 210 ------- 2 1.1 1073741825.0 149 355
r 0.67849 2 1 cbr 210 ------- 1 0.1 1073741824.0 151 358
+ 0.67849 1 2 prune 80 ------- 30 1.0 2.0 -1 372
r 0.67849 2 3 cbr 210 ------- 1 0.1 1073741824.0 151 358
+ 0.67849 3 7 cbr 210 ------- 1 0.1 1073741824.0 151 358
- 0.67849 3 7 cbr 210 ------- 1 0.1 1073741824.0 151 358
+ 0.67849 3 4 cbr 210 ------- 1 0.1 1073741824.0 151 358
- 0.67849 3 4 cbr 210 ------- 1 0.1 1073741824.0 151 358
r 0.67849 2 0 cbr 210 ------- 2 1.1 1073741825.0 151 359
+ 0.67849 0 2 prune 80 ------- 30 0.0 2.0 -1 373
- 0.67862 0 2 prune 80 ------- 30 0.0 2.0 -1 373
- 0.67862 1 2 prune 80 ------- 30 1.0 2.0 -1 372
r 0.67961 2 3 cbr 210 ------- 2 1.1 1073741825.0 151 359
+ 0.67961 3 7 cbr 210 ------- 2 1.1 1073741825.0 151 359
+ 0.67961 3 4 cbr 210 ------- 2 1.1 1073741825.0 151 359
- 0.67961 3 7 cbr 210 ------- 2 1.1 1073741825.0 151 359