s 0.029290548 _1_ RTR  --- 0 message 32 [0 0 0 0] ------- [1:255 -1:255 32 0] 
s 0.029365548 _1_ MAC  --- 0 message 90 [0 ffffffff 1 800] ------- [1:255 -1:255 32 0] 
r 0.030086019 _0_ MAC  --- 0 message 32 [0 ffffffff 1 800] ------- [1:255 -1:255 32 0] 
r 0.030111019 _0_ RTR  --- 0 message 32 [0 ffffffff 1 800] ------- [1:255 -1:255 32 0] 
M 0.10000 0 (110.00, 110.00, 0.00), (150.00, 150.00), 5.00
M 0.10000 1 (210.00, 210.00, 0.00), (200.00, 200.00), 5.00
s 0.100000000 _0_ AGT  --- 1 tcp 40 [0 0 0 0] ------- [0:0 1:0 32 0] [0 0] 0 0
r 0.100000000 _0_ RTR  --- 1 tcp 40 [0 0 0 0] ------- [0:0 1:0 32 0] [0 0] 0 0
s 0.100000000 _0_ RTR  --- 1 tcp 60 [0 0 0 0] ------- [0:0 1:0 32 1] [0 0] 0 0
s 0.100255000 _0_ MAC  --- 0 ARP 86 [0 ffffffff 0 806] ------- [REQUEST 0/0 0/1]
r 0.100943471 _1_ MAC  --- 0 ARP 28 [0 ffffffff 0 806] ------- [REQUEST 0/0 0/1]
s 0.101358471 _1_ MAC  --- 0 RTS 44 [52e 0 1 0] 
r 0.101710943 _0_ MAC  --- 0 RTS 44 [52e 0 1 0] 
s 0.101720943 _0_ MAC  --- 0 CTS 38 [3f4 1 0 0] 
r 0.102025414 _1_ MAC  --- 0 CTS 38 [3f4 1 0 0] 
s 0.102035414 _1_ MAC  --- 0 ARP 86 [13a 0 1 806] ------- [REPLY 1/1 0/0]
r 0.102723885 _0_ MAC  --- 0 ARP 28 [13a 0 1 806] ------- [REPLY 1/1 0/0]
s 0.102733885 _0_ MAC  --- 0 ACK 38 [0 1 0 0] 
r 0.103038357 _1_ MAC  --- 0 ACK 38 [0 1 0 0] 
s 0.103347885 _0_ MAC  --- 0 RTS 44 [62e 1 0 0] 
r 0.103700357 _1_ MAC  --- 0 RTS 44 [62e 1 0 0] 
s 0.103710357 _1_ MAC  --- 0 CTS 38 [4f4 0 0 0] 
r 0.104014828 _0_ MAC  --- 0 CTS 38 [4f4 0 0 0] 
s 0.104024828 _0_ MAC  --- 1 tcp 118 [13a 1 0 800] ------- [0:0 1:0 32 1] [0 0] 0 0
r 0.104969299 _1_ MAC  --- 1 tcp 60 [13a 1 0 800] ------- [0:0 1:0 32 1] [0 0] 1 0
s 0.104979299 _1_ MAC  --- 0 ACK 38 [0 0 0 0] 
r 0.104994299 _1_ AGT  --- 1 tcp 60 [13a 1 0 800] ------- [0:0 1:0 32 1] [0 0] 1 0
s 0.104994299 _1_ AGT  --- 2 ack 40 [0 0 0 0] ------- [1:0 0:0 32 0] [0 0] 0 0
r 0.104994299 _1_ RTR  --- 2 ack 40 [0 0 0 0] ------- [1:0 0:0 32 0] [0 0] 0 0
r 0.105283771 _0_ MAC  --- 0 ACK 38 [0 0 0 0] 
s 1.112189378 _0_ RTR  --- 3 message 32 [0 0 0 0] ------- [0:255 -1:255 32 0] 
s 1.112624378 _0_ MAC  --- 3 message 90 [0 ffffffff 0 800] ------- [0:255 -1:255 32 0] 
r 1.113344815 _1_ MAC  --- 3 message 32 [0 ffffffff 0 800] ------- [0:255 -1:255 32 0] 
r 1.113369815 _1_ RTR  --- 3 message 32 [0 ffffffff 0 800] ------- [0:255 -1:255 32 0] 
s 1.113369815 _1_ RTR  --- 2 ack 80 [0 0 0 0] ------- [1:0 0:0 32 0] [0 0] 0 0
s 1.113604815 _1_ MAC  --- 0 RTS 44 [6ce 0 1 0] 
r 1.113957253 _0_ MAC  --- 0 RTS 44 [6ce 0 1 0] 
s 1.113967253 _0_ MAC  --- 0 CTS 38 [594 1 0 0] 
r 1.114271690 _1_ MAC  --- 0 CTS 38 [594 1 0 0] 
s 1.114281690 _1_ MAC  --- 2 ack 138 [13a 0 1 800] ------- [1:0 0:0 32 0] [0 0] 0 0
r 1.115386128 _0_ MAC  --- 2 ack 80 [13a 0 1 800] ------- [1:0 0:0 32 0] [0 0] 1 0
s 1.115396128 _0_ MAC  --- 0 ACK 38 [0 1 0 0] 
r 1.115411128 _0_ AGT  --- 2 ack 80 [13a 0 1 800] ------- [1:0 0:0 32 0] [0 0] 1 0
s 1.115411128 _0_ AGT  --- 4 tcp 1040 [0 0 0 0] ------- [0:0 1:0 32 0] [1 0] 0 0
r 1.115411128 _0_ RTR  --- 4 tcp 1040 [0 0 0 0] ------- [0:0 1:0 32 0] [1 0] 0 0
s 1.115411128 _0_ RTR  --- 4 tcp 1060 [0 0 0 0] ------- [0:0 1:0 32 1] [1 0] 0 0
s 1.115411128 _0_ AGT  --- 5 tcp 1040 [0 0 0 0] ------- [0:0 1:0 32 0] [2 0] 0 0
r 1.115411128 _0_ RTR  --- 5 tcp 1040 [0 0 0 0] ------- [0:0 1:0 32 0] [2 0] 0 0
s 1.115411128 _0_ RTR  --- 5 tcp 1060 [0 0 0 0] ------- [0:0 1:0 32 1] [2 0] 0 0
r 1.115700566 _1_ MAC  --- 0 ACK 38 [0 1 0 0] 
s 1.115790128 _0_ MAC  --- 0 RTS 44 [256e 1 0 0] 
r 1.116142566 _1_ MAC  --- 0 RTS 44 [256e 1 0 0] 
s 1.116152566 _1_ MAC  --- 0 CTS 38 [2434 0 0 0] 
r 1.116457003 _0_ MAC  --- 0 CTS 38 [2434 0 0 0] 
s 1.116467003 _0_ MAC  --- 4 tcp 1118 [13a 1 0 800] ------- [0:0 1:0 32 1] [1 0] 0 0
r 1.125411441 _1_ MAC  --- 4 tcp 1060 [13a 1 0 800] ------- [0:0 1:0 32 1] [1 0] 1 0
s 1.125421441 _1_ MAC  --- 0 ACK 38 [0 0 0 0] 
r 1.125436441 _1_ AGT  --- 4 tcp 1060 [13a 1 0 800] ------- [0:0 1:0 32 1] [1 0] 1 0
s 1.125436441 _1_ AGT  --- 6 ack 40 [0 0 0 0] ------- [1:0 0:0 32 0] [1 0] 0 0
r 1.125436441 _1_ RTR  --- 6 ack 40 [0 0 0 0] ------- [1:0 0:0 32 0] [1 0] 0 0
s 1.125436441 _1_ RTR  --- 6 ack 60 [0 0 0 0] ------- [1:0 0:0 32 0] [1 0] 0 0
r 1.125725878 _0_ MAC  --- 0 ACK 38 [0 0 0 0] 
s 1.126115878 _0_ MAC  --- 0 RTS 44 [256e 1 0 0] 
r 1.126468315 _1_ MAC  --- 0 RTS 44 [256e 1 0 0] 
s 1.126478315 _1_ MAC  --- 0 CTS 38 [2434 0 0 0] 
r 1.126782752 _0_ MAC  --- 0 CTS 38 [2434 0 0 0] 
s 1.126792752 _0_ MAC  --- 5 tcp 1118 [13a 1 0 800] ------- [0:0 1:0 32 1] [2 0] 0 0
r 1.135737189 _1_ MAC  --- 5 tcp 1060 [13a 1 0 800] ------- [0:0 1:0 32 1] [2 0] 1 0
s 1.135747189 _1_ MAC  --- 0 ACK 38 [0 0 0 0] 
r 1.135762189 _1_ AGT  --- 5 tcp 1060 [13a 1 0 800] ------- [0:0 1:0 32 1] [2 0] 1 0
s 1.135762189 _1_ AGT  --- 7 ack 40 [0 0 0 0] ------- [1:0 0:0 32 0] [2 0] 0 0
r 1.135762189 _1_ RTR  --- 7 ack 40 [0 0 0 0] ------- [1:0 0:0 32 0] [2 0] 0 0
s 1.135762189 _1_ RTR  --- 7 ack 60 [0 0 0 0] ------- [1:0 0:0 32 0] [2 0] 0 0
r 1.136051626 _0_ MAC  --- 0 ACK 38 [0 0 0 0] 
s 1.136221189 _1_ MAC  --- 0 RTS 44 [62e 0 1 0] 
r 1.136573626 _0_ MAC  --- 0 RTS 44 [62e 0 1 0] 
s 1.136583626 _0_ MAC  --- 0 CTS 38 [4f4 1 0 0] 
r 1.136888063 _1_ MAC  --- 0 CTS 38 [4f4 1 0 0] 
s 1.136898063 _1_ MAC  --- 6 ack 118 [13a 0 1 800] ------- [1:0 0:0 32 0] [1 0] 0 0
r 1.137842500 _0_ MAC  --- 6 ack 60 [13a 0 1 800] ------- [1:0 0:0 32 0] [1 0] 1 0
s 1.137852500 _0_ MAC  --- 0 ACK 38 [0 1 0 0] 
r 1.137867500 _0_ AGT  --- 6 ack 60 [13a 0 1 800] ------- [1:0 0:0 32 0] [1 0] 1 0
s 1.137867500 _0_ AGT  --- 8 tcp 1040 [0 0 0 0] ------- [0:0 1:0 32 0] [3 0] 0 0
r 1.137867500 _0_ RTR  --- 8 tcp 1040 [0 0 0 0] ------- [0:0 1:0 32 0] [3 0] 0 0
s 1.137867500 _0_ RTR  --- 8 tcp 1060 [0 0 0 0] ------- [0:0 1:0 32 1] [3 0] 0 0
s 1.137867500 _0_ AGT  --- 9 tcp 1040 [0 0 0 0] ------- [0:0 1:0 32 0] [4 0] 0 0
r 1.137867500 _0_ RTR  --- 9 tcp 1040 [0 0 0 0] ------- [0:0 1:0 32 0] [4 0] 0 0
s 1.137867500 _0_ RTR  --- 9 tcp 1060 [0 0 0 0] ------- [0:0 1:0 32 1] [4 0] 0 0
r 1.138156937 _1_ MAC  --- 0 ACK 38 [0 1 0 0] 
s 1.138406937 _1_ MAC  --- 0 RTS 44 [62e 0 1 0] 
r 1.138759374 _0_ MAC  --- 0 RTS 44 [62e 0 1 0] 
s 1.138769374 _0_ MAC  --- 0 CTS 38 [4f4 1 0 0] 
r 1.139073810 _1_ MAC  --- 0 CTS 38 [4f4 1 0 0] 
s 1.139083810 _1_ MAC  --- 7 ack 118 [13a 0 1 800] ------- [1:0 0:0 32 0] [2 0] 0 0
r 1.140028247 _0_ MAC  --- 7 ack 60 [13a 0 1 800] ------- [1:0 0:0 32 0] [2 0] 1 0
s 1.140038247 _0_ MAC  --- 0 ACK 38 [0 1 0 0] 
r 1.140053247 _0_ AGT  --- 7 ack 60 [13a 0 1 800] ------- [1:0 0:0 32 0] [2 0] 1 0
s 1.140053247 _0_ AGT  --- 10 tcp 1040 [0 0 0 0] ------- [0:0 1:0 32 0] [5 0] 0 0
r 1.140053247 _0_ RTR  --- 10 tcp 1040 [0 0 0 0] ------- [0:0 1:0 32 0] [5 0] 0 0
s 1.140053247 _0_ RTR  --- 10 tcp 1060 [0 0 0 0] ------- [0:0 1:0 32 1] [5 0] 0 0
s 1.140053247 _0_ AGT  --- 11 tcp 1040 [0 0 0 0] ------- [0:0 1:0 32 0] [6 0] 0 0
r 1.140053247 _0_ RTR  --- 11 tcp 1040 [0 0 0 0] ------- [0:0 1:0 32 0] [6 0] 0 0
s 1.140053247 _0_ RTR  --- 11 tcp 1060 [0 0 0 0] ------- [0:0 1:0 32 1] [6 0] 0 0
r 1.140342684 _1_ MAC  --- 0 ACK 38 [0 1 0 0] 
s 1.140412247 _0_ MAC  --- 0 RTS 44 [256e 1 0 0] 
r 1.140764684 _1_ MAC  --- 0 RTS 44 [256e 1 0 0] 
s 1.140774684 _1_ MAC  --- 0 CTS 38 [2434 0 0 0] 
r 1.141079121 _0_ MAC  --- 0 CTS 38 [2434 0 0 0] 
s 1.141089121 _0_ MAC  --- 8 tcp 1118 [13a 1 0 800] ------- [0:0 1:0 32 1] [3 0] 0 0
r 1.150033557 _1_ MAC  --- 8 tcp 1060 [13a 1 0 800] ------- [0:0 1:0 32 1] [3 0] 1 0
s 1.150043557 _1_ MAC  --- 0 ACK 38 [0 0 0 0] 
r 1.150058557 _1_ AGT  --- 8 tcp 1060 [13a 1 0 800] ------- [0:0 1:0 32 1] [3 0] 1 0
s 1.150058557 _1_ AGT  --- 12 ack 40 [0 0 0 0] ------- [1:0 0:0 32 0] [3 0] 0 0
r 1.150058557 _1_ RTR  --- 12 ack 40 [0 0 0 0] ------- [1:0 0:0 32 0] [3 0] 0 0
s 1.150058557 _1_ RTR  --- 12 ack 60 [0 0 0 0] ------- [1:0 0:0 32 0] [3 0] 0 0
r 1.150347994 _0_ MAC  --- 0 ACK 38 [0 0 0 0] 
s 1.150417994 _0_ MAC  --- 0 RTS 44 [256e 1 0 0] 
r 1.150770430 _1_ MAC  --- 0 RTS 44 [256e 1 0 0] 
s 1.150780430 _1_ MAC  --- 0 CTS 38 [2434 0 0 0] 
r 1.151084866 _0_ MAC  --- 0 CTS 38 [2434 0 0 0] 
s 1.151094866 _0_ MAC  --- 9 tcp 1118 [13a 1 0 800] ------- [0:0 1:0 32 1] [4 0] 0 0
r 1.160039303 _1_ MAC  --- 9 tcp 1060 [13a 1 0 800] ------- [0:0 1:0 32 1] [4 0] 1 0
s 1.160049303 _1_ MAC  --- 0 ACK 38 [0 0 0 0] 
r 1.160064303 _1_ AGT  --- 9 tcp 1060 [13a 1 0 800] ------- [0:0 1:0 32 1] [4 0] 1 0
s 1.160064303 _1_ AGT  --- 13 ack 40 [0 0 0 0] ------- [1:0 0:0 32 0] [4 0] 0 0
r 1.160064303 _1_ RTR  --- 13 ack 40 [0 0 0 0] ------- [1:0 0:0 32 0] [4 0] 0 0
s 1.160064303 _1_ RTR  --- 13 ack 60 [0 0 0 0] ------- [1:0 0:0 32 0] [4 0] 0 0
r 1.160353739 _0_ MAC  --- 0 ACK 38 [0 0 0 0] 
s 1.160603303 _1_ MAC  --- 0 RTS 44 [62e 0 1 0] 
r 1.160955739 _0_ MAC  --- 0 RTS 44 [62e 0 1 0] 
s 1.160965739 _0_ MAC  --- 0 CTS 38 [4f4 1 0 0] 
r 1.161270175 _1_ MAC  --- 0 CTS 38 [4f4 1 0 0] 
s 1.161280175 _1_ MAC  --- 12 ack 118 [13a 0 1 800] ------- [1:0 0:0 32 0] [3 0] 0 0
r 1.162224611 _0_ MAC  --- 12 ack 60 [13a 0 1 800] ------- [1:0 0:0 32 0] [3 0] 1 0
s 1.162234611 _0_ MAC  --- 0 ACK 38 [0 1 0 0] 
r 1.162249611 _0_ AGT  --- 12 ack 60 [13a 0 1 800] ------- [1:0 0:0 32 0] [3 0] 1 0
s 1.162249611 _0_ AGT  --- 14 tcp 1040 [0 0 0 0] ------- [0:0 1:0 32 0] [7 0] 0 0
r 1.162249611 _0_ RTR  --- 14 tcp 1040 [0 0 0 0] ------- [0:0 1:0 32 0] [7 0] 0 0
s 1.162249611 _0_ RTR  --- 14 tcp 1060 [0 0 0 0] ------- [0:0 1:0 32 1] [7 0] 0 0
s 1.162249611 _0_ AGT  --- 15 tcp 1040 [0 0 0 0] ------- [0:0 1:0 32 0] [8 0] 0 0
r 1.162249611 _0_ RTR  --- 15 tcp 1040 [0 0 0 0] ------- [0:0 1:0 32 0] [8 0] 0 0
s 1.162249611 _0_ RTR  --- 15 tcp 1060 [0 0 0 0] ------- [0:0 1:0 32 1] [8 0] 0 0
r 1.162539047 _1_ MAC  --- 0 ACK 38 [0 1 0 0] 
s 1.162648611 _0_ MAC  --- 0 RTS 44 [256e 1 0 0] 
r 1.163001047 _1_ MAC  --- 0 RTS 44 [256e 1 0 0] 
s 1.163011047 _1_ MAC  --- 0 CTS 38 [2434 0 0 0] 
r 1.163315483 _0_ MAC  --- 0 CTS 38 [2434 0 0 0] 
s 1.163325483 _0_ MAC  --- 10 tcp 1118 [13a 1 0 800] ------- [0:0 1:0 32 1] [5 0] 0 0
r 1.172269919 _1_ MAC  --- 10 tcp 1060 [13a 1 0 800] ------- [0:0 1:0 32 1] [5 0] 1 0
s 1.172279919 _1_ MAC  --- 0 ACK 38 [0 0 0 0] 
r 1.172294919 _1_ AGT  --- 10 tcp 1060 [13a 1 0 800] ------- [0:0 1:0 32 1] [5 0] 1 0
s 1.172294919 _1_ AGT  --- 16 ack 40 [0 0 0 0] ------- [1:0 0:0 32 0] [5 0] 0 0
r 1.172294919 _1_ RTR  --- 16 ack 40 [0 0 0 0] ------- [1:0 0:0 32 0] [5 0] 0 0
s 1.172294919 _1_ RTR  --- 16 ack 60 [0 0 0 0] ------- [1:0 0:0 32 0] [5 0] 0 0
r 1.172584354 _0_ MAC  --- 0 ACK 38 [0 0 0 0] 
s 1.172814354 _0_ MAC  --- 0 RTS 44 [256e 1 0 0] 
r 1.173166790 _1_ MAC  --- 0 RTS 44 [256e 1 0 0] 
s 1.173176790 _1_ MAC  --- 0 CTS 38 [2434 0 0 0] 
r 1.173481226 _0_ MAC  --- 0 CTS 38 [2434 0 0 0] 
s 1.173491226 _0_ MAC  --- 11 tcp 1118 [13a 1 0 800] ------- [0:0 1:0 32 1] [6 0] 0 0
r 1.182435661 _1_ MAC  --- 11 tcp 1060 [13a 1 0 800] ------- [0:0 1:0 32 1] [6 0] 1 0
s 1.182445661 _1_ MAC  --- 0 ACK 38 [0 0 0 0] 
r 1.182460661 _1_ AGT  --- 11 tcp 1060 [13a 1 0 800] ------- [0:0 1:0 32 1] [6 0] 1 0
s 1.182460661 _1_ AGT  --- 17 ack 40 [0 0 0 0] ------- [1:0 0:0 32 0] [6 0] 0 0
r 1.182460661 _1_ RTR  --- 17 ack 40 [0 0 0 0] ------- [1:0 0:0 32 0] [6 0] 0 0
s 1.182460661 _1_ RTR  --- 17 ack 60 [0 0 0 0] ------- [1:0 0:0 32 0] [6 0] 0 0
r 1.182750097 _0_ MAC  --- 0 ACK 38 [0 0 0 0] 
s 1.183019661 _1_ MAC  --- 0 RTS 44 [62e 0 1 0] 
r 1.183372097 _0_ MAC  --- 0 RTS 44 [62e 0 1 0] 
s 1.183382097 _0_ MAC  --- 0 CTS 38 [4f4 1 0 0] 
r 1.183686532 _1_ MAC  --- 0 CTS 38 [4f4 1 0 0] 
s 1.183696532 _1_ MAC  --- 13 ack 118 [13a 0 1 800] ------- [1:0 0:0 32 0] [4 0] 0 0
r 1.184640967 _0_ MAC  --- 13 ack 60 [13a 0 1 800] ------- [1:0 0:0 32 0] [4 0] 1 0
s 1.184650967 _0_ MAC  --- 0 ACK 38 [0 1 0 0] 
r 1.184665967 _0_ AGT  --- 13 ack 60 [13a 0 1 800] ------- [1:0 0:0 32 0] [4 0] 1 0
s 1.184665967 _0_ AGT  --- 18 tcp 1040 [0 0 0 0] ------- [0:0 1:0 32 0] [9 0] 0 0
r 1.184665967 _0_ RTR  --- 18 tcp 1040 [0 0 0 0] ------- [0:0 1:0 32 0] [9 0] 0 0
s 1.184665967 _0_ RTR  --- 18 tcp 1060 [0 0 0 0] ------- [0:0 1:0 32 1] [9 0] 0 0
s 1.184665967 _0_ AGT  --- 19 tcp 1040 [0 0 0 0] ------- [0:0 1:0 32 0] [10 0] 0 0
r 1.184665967 _0_ RTR  --- 19 tcp 1040 [0 0 0 0] ------- [0:0 1:0 32 0] [10 0] 0 0
s 1.184665967 _0_ RTR  --- 19 tcp 1060 [0 0 0 0] ------- [0:0 1:0 32 1] [10 0] 0 0
r 1.184955403 _1_ MAC  --- 0 ACK 38 [0 1 0 0] 
s 1.185384967 _0_ MAC  --- 0 RTS 44 [256e 1 0 0] 
r 1.185737402 _1_ MAC  --- 0 RTS 44 [256e 1 0 0] 
s 1.185747402 _1_ MAC  --- 0 CTS 38 [2434 0 0 0] 
r 1.186051838 _0_ MAC  --- 0 CTS 38 [2434 0 0 0] 
s 1.186061838 _0_ MAC  --- 14 tcp 1118 [13a 1 0 800] ------- [0:0 1:0 32 1] [7 0] 0 0
r 1.195006273 _1_ MAC  --- 14 tcp 1060 [13a 1 0 800] ------- [0:0 1:0 32 1] [7 0] 1 0
s 1.195016273 _1_ MAC  --- 0 ACK 38 [0 0 0 0] 
r 1.195031273 _1_ AGT  --- 14 tcp 1060 [13a 1 0 800] ------- [0:0 1:0 32 1] [7 0] 1 0
s 1.195031273 _1_ AGT  --- 20 ack 40 [0 0 0 0] ------- [1:0 0:0 32 0] [7 0] 0 0
r 1.195031273 _1_ RTR  --- 20 ack 40 [0 0 0 0] ------- [1:0 0:0 32 0] [7 0] 0 0
s 1.195031273 _1_ RTR  --- 20 ack 60 [0 0 0 0] ------- [1:0 0:0 32 0] [7 0] 0 0
r 1.195320708 _0_ MAC  --- 0 ACK 38 [0 0 0 0] 
s 1.195410273 _1_ MAC  --- 0 RTS 44 [62e 0 1 0] 
r 1.195762708 _0_ MAC  --- 0 RTS 44 [62e 0 1 0] 
s 1.195772708 _0_ MAC  --- 0 CTS 38 [4f4 1 0 0] 
r 1.196077143 _1_ MAC  --- 0 CTS 38 [4f4 1 0 0] 
s 1.196087143 _1_ MAC  --- 16 ack 118 [13a 0 1 800] ------- [1:0 0:0 32 0] [5 0] 0 0
r 1.197031578 _0_ MAC  --- 16 ack 60 [13a 0 1 800] ------- [1:0 0:0 32 0] [5 0] 1 0
s 1.197041578 _0_ MAC  --- 0 ACK 38 [0 1 0 0] 
r 1.197056578 _0_ AGT  --- 16 ack 60 [13a 0 1 800] ------- [1:0 0:0 32 0] [5 0] 1 0
s 1.197056578 _0_ AGT  --- 21 tcp 1040 [0 0 0 0] ------- [0:0 1:0 32 0] [11 0] 0 0
r 1.197056578 _0_ RTR  --- 21 tcp 1040 [0 0 0 0] ------- [0:0 1:0 32 0] [11 0] 0 0
s 1.197056578 _0_ RTR  --- 21 tcp 1060 [0 0 0 0] ------- [0:0 1:0 32 1] [11 0] 0 0
s 1.197056578 _0_ AGT  --- 22 tcp 1040 [0 0 0 0] ------- [0:0 1:0 32 0] [12 0] 0 0
r 1.197056578 _0_ RTR  --- 22 tcp 1040 [0 0 0 0] ------- [0:0 1:0 32 0] [12 0] 0 0
s 1.197056578 _0_ RTR  --- 22 tcp 1060 [0 0 0 0] ------- [0:0 1:0 32 1] [12 0] 0 0
r 1.197346012 _1_ MAC  --- 0 ACK 38 [0 1 0 0] 
s 1.197756012 _1_ MAC  --- 0 RTS 44 [62e 0 1 0] 
r 1.198108447 _0_ MAC  --- 0 RTS 44 [62e 0 1 0] 
s 1.198118447 _0_ MAC  --- 0 CTS 38 [4f4 1 0 0] 
r 1.198422882 _1_ MAC  --- 0 CTS 38 [4f4 1 0 0] 
s 1.198432882 _1_ MAC  --- 17 ack 118 [13a 0 1 800] ------- [1:0 0:0 32 0] [6 0] 0 0
r 1.199377317 _0_ MAC  --- 17 ack 60 [13a 0 1 800] ------- [1:0 0:0 32 0] [6 0] 1 0
s 1.199387317 _0_ MAC  --- 0 ACK 38 [0 1 0 0] 
r 1.199402317 _0_ AGT  --- 17 ack 60 [13a 0 1 800] ------- [1:0 0:0 32 0] [6 0] 1 0
s 1.199402317 _0_ AGT  --- 23 tcp 1040 [0 0 0 0] ------- [0:0 1:0 32 0] [13 0] 0 0
r 1.199402317 _0_ RTR  --- 23 tcp 1040 [0 0 0 0] ------- [0:0 1:0 32 0] [13 0] 0 0
s 1.199402317 _0_ RTR  --- 23 tcp 1060 [0 0 0 0] ------- [0:0 1:0 32 1] [13 0] 0 0
s 1.199402317 _0_ AGT  --- 24 tcp 1040 [0 0 0 0] ------- [0:0 1:0 32 0] [14 0] 0 0
r 1.199402317 _0_ RTR  --- 24 tcp 1040 [0 0 0 0] ------- [0:0 1:0 32 0] [14 0] 0 0
s 1.199402317 _0_ RTR  --- 24 tcp 1060 [0 0 0 0] ------- [0:0 1:0 32 1] [14 0] 0 0
r 1.199691752 _1_ MAC  --- 0 ACK 38 [0 1 0 0] 
s 1.199781752 _1_ MAC  --- 0 RTS 44 [62e 0 1 0] 
r 1.200134186 _0_ MAC  --- 0 RTS 44 [62e 0 1 0] 
s 1.200144186 _0_ MAC  --- 0 CTS 38 [4f4 1 0 0] 
r 1.200448621 _1_ MAC  --- 0 CTS 38 [4f4 1 0 0] 
s 1.200458621 _1_ MAC  --- 20 ack 118 [13a 0 1 800] ------- [1:0 0:0 32 0] [7 0] 0 0
r 1.201403056 _0_ MAC  --- 20 ack 60 [13a 0 1 800] ------- [1:0 0:0 32 0] [7 0] 1 0
s 1.201413056 _0_ MAC  --- 0 ACK 38 [0 1 0 0] 
r 1.201428056 _0_ AGT  --- 20 ack 60 [13a 0 1 800] ------- [1:0 0:0 32 0] [7 0] 1 0
s 1.201428056 _0_ AGT  --- 25 tcp 1040 [0 0 0 0] ------- [0:0 1:0 32 0] [15 0] 0 0
r 1.201428056 _0_ RTR  --- 25 tcp 1040 [0 0 0 0] ------- [0:0 1:0 32 0] [15 0] 0 0
s 1.201428056 _0_ RTR  --- 25 tcp 1060 [0 0 0 0] ------- [0:0 1:0 32 1] [15 0] 0 0
s 1.201428056 _0_ AGT  --- 26 tcp 1040 [0 0 0 0] ------- [0:0 1:0 32 0] [16 0] 0 0
r 1.201428056 _0_ RTR  --- 26 tcp 1040 [0 0 0 0] ------- [0:0 1:0 32 0] [16 0] 0 0
s 1.201428056 _0_ RTR  --- 26 tcp 1060 [0 0 0 0] ------- [0:0 1:0 32 1] [16 0] 0 0
r 1.201717490 _1_ MAC  --- 0 ACK 38 [0 1 0 0] 
s 1.201887056 _0_ MAC  --- 0 RTS 44 [256e 1 0 0] 
r 1.202239490 _1_ MAC  --- 0 RTS 44 [256e 1 0 0] 
s 1.202249490 _1_ MAC  --- 0 CTS 38 [2434 0 0 0] 
r 1.202553925 _0_ MAC  --- 0 CTS 38 [2434 0 0 0] 
s 1.202563925 _0_ MAC  --- 15 tcp 1118 [13a 1 0 800] ------- [0:0 1:0 32 1] [8 0] 0 0
r 1.211508360 _1_ MAC  --- 15 tcp 1060 [13a 1 0 800] ------- [0:0 1:0 32 1] [8 0] 1 0
s 1.211518360 _1_ MAC  --- 0 ACK 38 [0 0 0 0] 
r 1.211533360 _1_ AGT  --- 15 tcp 1060 [13a 1 0 800] ------- [0:0 1:0 32 1] [8 0] 1 0
s 1.211533360 _1_ AGT  --- 27 ack 40 [0 0 0 0] ------- [1:0 0:0 32 0] [8 0] 0 0
r 1.211533360 _1_ RTR  --- 27 ack 40 [0 0 0 0] ------- [1:0 0:0 32 0] [8 0] 0 0
s 1.211533360 _1_ RTR  --- 27 ack 60 [0 0 0 0] ------- [1:0 0:0 32 0] [8 0] 0 0
r 1.211822794 _0_ MAC  --- 0 ACK 38 [0 0 0 0] 
s 1.212072360 _1_ MAC  --- 0 RTS 44 [62e 0 1 0] 
r 1.212424794 _0_ MAC  --- 0 RTS 44 [62e 0 1 0] 
s 1.212434794 _0_ MAC  --- 0 CTS 38 [4f4 1 0 0] 
r 1.212739228 _1_ MAC  --- 0 CTS 38 [4f4 1 0 0] 
s 1.212749228 _1_ MAC  --- 27 ack 118 [13a 0 1 800] ------- [1:0 0:0 32 0] [8 0] 0 0
r 1.213693663 _0_ MAC  --- 27 ack 60 [13a 0 1 800] ------- [1:0 0:0 32 0] [8 0] 1 0
s 1.213703663 _0_ MAC  --- 0 ACK 38 [0 1 0 0] 
r 1.213718663 _0_ AGT  --- 27 ack 60 [13a 0 1 800] ------- [1:0 0:0 32 0] [8 0] 1 0
s 1.213718663 _0_ AGT  --- 28 tcp 1040 [0 0 0 0] ------- [0:0 1:0 32 0] [17 0] 0 0
r 1.213718663 _0_ RTR  --- 28 tcp 1040 [0 0 0 0] ------- [0:0 1:0 32 0] [17 0] 0 0
s 1.213718663 _0_ RTR  --- 28 tcp 1060 [0 0 0 0] ------- [0:0 1:0 32 1] [17 0] 0 0
s 1.213718663 _0_ AGT  --- 29 tcp 1040 [0 0 0 0] ------- [0:0 1:0 32 0] [18 0] 0 0
r 1.213718663 _0_ RTR  --- 29 tcp 1040 [0 0 0 0] ------- [0:0 1:0 32 0] [18 0] 0 0
s 1.213718663 _0_ RTR  --- 29 tcp 1060 [0 0 0 0] ------- [0:0 1:0 32 1] [18 0] 0 0
r 1.214008097 _1_ MAC  --- 0 ACK 38 [0 1 0 0] 
s 1.214237663 _0_ MAC  --- 0 RTS 44 [256e 1 0 0] 
r 1.214590097 _1_ MAC  --- 0 RTS 44 [256e 1 0 0] 
s 1.214600097 _1_ MAC  --- 0 CTS 38 [2434 0 0 0] 
r 1.214904531 _0_ MAC  --- 0 CTS 38 [2434 0 0 0] 
s 1.214914531 _0_ MAC  --- 18 tcp 1118 [13a 1 0 800] ------- [0:0 1:0 32 1] [9 0] 0 0
r 1.223858965 _1_ MAC  --- 18 tcp 1060 [13a 1 0 800] ------- [0:0 1:0 32 1] [9 0] 1 0
s 1.223868965 _1_ MAC  --- 0 ACK 38 [0 0 0 0] 
r 1.223883965 _1_ AGT  --- 18 tcp 1060 [13a 1 0 800] ------- [0:0 1:0 32 1] [9 0] 1 0
s 1.223883965 _1_ AGT  --- 30 ack 40 [0 0 0 0] ------- [1:0 0:0 32 0] [9 0] 0 0
r 1.223883965 _1_ RTR  --- 30 ack 40 [0 0 0 0] ------- [1:0 0:0 32 0] [9 0] 0 0
s 1.223883965 _1_ RTR  --- 30 ack 60 [0 0 0 0] ------- [1:0 0:0 32 0] [9 0] 0 0
r 1.224173399 _0_ MAC  --- 0 ACK 38 [0 0 0 0] 
s 1.224302965 _1_ MAC  --- 0 RTS 44 [62e 0 1 0] 
r 1.224655399 _0_ MAC  --- 0 RTS 44 [62e 0 1 0] 
s 1.224665399 _0_ MAC  --- 0 CTS 38 [4f4 1 0 0] 
r 1.224969833 _1_ MAC  --- 0 CTS 38 [4f4 1 0 0] 
s 1.224979833 _1_ MAC  --- 30 ack 118 [13a 0 1 800] ------- [1:0 0:0 32 0] [9 0] 0 0
r 1.225924267 _0_ MAC  --- 30 ack 60 [13a 0 1 800] ------- [1:0 0:0 32 0] [9 0] 1 0
s 1.225934267 _0_ MAC  --- 0 ACK 38 [0 1 0 0] 
r 1.225949267 _0_ AGT  --- 30 ack 60 [13a 0 1 800] ------- [1:0 0:0 32 0] [9 0] 1 0
s 1.225949267 _0_ AGT  --- 31 tcp 1040 [0 0 0 0] ------- [0:0 1:0 32 0] [19 0] 0 0
r 1.225949267 _0_ RTR  --- 31 tcp 1040 [0 0 0 0] ------- [0:0 1:0 32 0] [19 0] 0 0
s 1.225949267 _0_ RTR  --- 31 tcp 1060 [0 0 0 0] ------- [0:0 1:0 32 1] [19 0] 0 0
s 1.225949267 _0_ AGT  --- 32 tcp 1040 [0 0 0 0] ------- [0:0 1:0 32 0] [20 0] 0 0
r 1.225949267 _0_ RTR  --- 32 tcp 1040 [0 0 0 0] ------- [0:0 1:0 32 0] [20 0] 0 0
s 1.225949267 _0_ RTR  --- 32 tcp 1060 [0 0 0 0] ------- [0:0 1:0 32 1] [20 0] 0 0
r 1.226238701 _1_ MAC  --- 0 ACK 38 [0 1 0 0] 
s 1.226508267 _0_ MAC  --- 0 RTS 44 [256e 1 0 0] 
r 1.226860701 _1_ MAC  --- 0 RTS 44 [256e 1 0 0] 
s 1.226870701 _1_ MAC  --- 0 CTS 38 [2434 0 0 0] 
r 1.227175135 _0_ MAC  --- 0 CTS 38 [2434 0 0 0] 
s 1.227185135 _0_ MAC  --- 19 tcp 1118 [13a 1 0 800] ------- [0:0 1:0 32 1] [10 0] 0 0
r 1.236129569 _1_ MAC  --- 19 tcp 1060 [13a 1 0 800] ------- [0:0 1:0 32 1] [10 0] 1 0
s 1.236139569 _1_ MAC  --- 0 ACK 38 [0 0 0 0] 
r 1.236154569 _1_ AGT  --- 19 tcp 1060 [13a 1 0 800] ------- [0:0 1:0 32 1] [10 0] 1 0
s 1.236154569 _1_ AGT  --- 33 ack 40 [0 0 0 0] ------- [1:0 0:0 32 0] [10 0] 0 0
r 1.236154569 _1_ RTR  --- 33 ack 40 [0 0 0 0] ------- [1:0 0:0 32 0] [10 0] 0 0
s 1.236154569 _1_ RTR  --- 33 ack 60 [0 0 0 0] ------- [1:0 0:0 32 0] [10 0] 0 0
r 1.236444002 _0_ MAC  --- 0 ACK 38 [0 0 0 0] 
s 1.236593569 _1_ MAC  --- 0 RTS 44 [62e 0 1 0] 
r 1.236946002 _0_ MAC  --- 0 RTS 44 [62e 0 1 0] 
s 1.236956002 _0_ MAC  --- 0 CTS 38 [4f4 1 0 0] 
r 1.237260436 _1_ MAC  --- 0 CTS 38 [4f4 1 0 0] 
s 1.237270436 _1_ MAC  --- 33 ack 118 [13a 0 1 800] ------- [1:0 0:0 32 0] [10 0] 0 0
r 1.238214869 _0_ MAC  --- 33 ack 60 [13a 0 1 800] ------- [1:0 0:0 32 0] [10 0] 1 0
s 1.238224869 _0_ MAC  --- 0 ACK 38 [0 1 0 0] 
r 1.238239869 _0_ AGT  --- 33 ack 60 [13a 0 1 800] ------- [1:0 0:0 32 0] [10 0] 1 0
s 1.238239869 _0_ AGT  --- 34 tcp 1040 [0 0 0 0] ------- [0:0 1:0 32 0] [21 0] 0 0
r 1.238239869 _0_ RTR  --- 34 tcp 1040 [0 0 0 0] ------- [0:0 1:0 32 0] [21 0] 0 0
s 1.238239869 _0_ RTR  --- 34 tcp 1060 [0 0 0 0] ------- [0:0 1:0 32 1] [21 0] 0 0
s 1.238239869 _0_ AGT  --- 35 tcp 1040 [0 0 0 0] ------- [0:0 1:0 32 0] [22 0] 0 0
r 1.238239869 _0_ RTR  --- 35 tcp 1040 [0 0 0 0] ------- [0:0 1:0 32 0] [22 0] 0 0
s 1.238239869 _0_ RTR  --- 35 tcp 1060 [0 0 0 0] ------- [0:0 1:0 32 1] [22 0] 0 0
r 1.238529303 _1_ MAC  --- 0 ACK 38 [0 1 0 0] 
s 1.239018869 _0_ MAC  --- 0 RTS 44 [256e 1 0 0] 
r 1.239371303 _1_ MAC  --- 0 RTS 44 [256e 1 0 0] 
s 1.239381303 _1_ MAC  --- 0 CTS 38 [2434 0 0 0] 
r 1.239685736 _0_ MAC  --- 0 CTS 38 [2434 0 0 0] 
s 1.239695736 _0_ MAC  --- 21 tcp 1118 [13a 1 0 800] ------- [0:0 1:0 32 1] [11 0] 0 0
r 1.248640170 _1_ MAC  --- 21 tcp 1060 [13a 1 0 800] ------- [0:0 1:0 32 1] [11 0] 1 0
s 1.248650170 _1_ MAC  --- 0 ACK 38 [0 0 0 0] 
r 1.248665170 _1_ AGT  --- 21 tcp 1060 [13a 1 0 800] ------- [0:0 1:0 32 1] [11 0] 1 0
s 1.248665170 _1_ AGT  --- 36 ack 40 [0 0 0 0] ------- [1:0 0:0 32 0] [11 0] 0 0
r 1.248665170 _1_ RTR  --- 36 ack 40 [0 0 0 0] ------- [1:0 0:0 32 0] [11 0] 0 0
s 1.248665170 _1_ RTR  --- 36 ack 60 [0 0 0 0] ------- [1:0 0:0 32 0] [11 0] 0 0
r 1.248954603 _0_ MAC  --- 0 ACK 38 [0 0 0 0] 
s 1.249204170 _1_ MAC  --- 0 RTS 44 [62e 0 1 0] 
r 1.249556603 _0_ MAC  --- 0 RTS 44 [62e 0 1 0] 
s 1.249566603 _0_ MAC  --- 0 CTS 38 [4f4 1 0 0] 
r 1.249871036 _1_ MAC  --- 0 CTS 38 [4f4 1 0 0] 
s 1.249881036 _1_ MAC  --- 36 ack 118 [13a 0 1 800] ------- [1:0 0:0 32 0] [11 0] 0 0
r 1.250825469 _0_ MAC  --- 36 ack 60 [13a 0 1 800] ------- [1:0 0:0 32 0] [11 0] 1 0
s 1.250835469 _0_ MAC  --- 0 ACK 38 [0 1 0 0] 
r 1.250850469 _0_ AGT  --- 36 ack 60 [13a 0 1 800] ------- [1:0 0:0 32 0] [11 0] 1 0
s 1.250850469 _0_ AGT  --- 37 tcp 1040 [0 0 0 0] ------- [0:0 1:0 32 0] [23 0] 0 0
r 1.250850469 _0_ RTR  --- 37 tcp 1040 [0 0 0 0] ------- [0:0 1:0 32 0] [23 0] 0 0
s 1.250850469 _0_ RTR  --- 37 tcp 1060 [0 0 0 0] ------- [0:0 1:0 32 1] [23 0] 0 0
s 1.250850469 _0_ AGT  --- 38 tcp 1040 [0 0 0 0] ------- [0:0 1:0 32 0] [24 0] 0 0
r 1.250850469 _0_ RTR  --- 38 tcp 1040 [0 0 0 0] ------- [0:0 1:0 32 0] [24 0] 0 0
s 1.250850469 _0_ RTR  --- 38 tcp 1060 [0 0 0 0] ------- [0:0 1:0 32 1] [24 0] 0 0
r 1.251139902 _1_ MAC  --- 0 ACK 38 [0 1 0 0] 
s 1.251589469 _0_ MAC  --- 0 RTS 44 [256e 1 0 0] 
r 1.251941902 _1_ MAC  --- 0 RTS 44 [256e 1 0 0] 
s 1.251951902 _1_ MAC  --- 0 CTS 38 [2434 0 0 0] 
r 1.252256335 _0_ MAC  --- 0 CTS 38 [2434 0 0 0] 
s 1.252266335 _0_ MAC  --- 22 tcp 1118 [13a 1 0 800] ------- [0:0 1:0 32 1] [12 0] 0 0
r 1.261210768 _1_ MAC  --- 22 tcp 1060 [13a 1 0 800] ------- [0:0 1:0 32 1] [12 0] 1 0
s 1.261220768 _1_ MAC  --- 0 ACK 38 [0 0 0 0] 
r 1.261235768 _1_ AGT  --- 22 tcp 1060 [13a 1 0 800] ------- [0:0 1:0 32 1] [12 0] 1 0
s 1.261235768 _1_ AGT  --- 39 ack 40 [0 0 0 0] ------- [1:0 0:0 32 0] [12 0] 0 0
r 1.261235768 _1_ RTR  --- 39 ack 40 [0 0 0 0] ------- [1:0 0:0 32 0] [12 0] 0 0
s 1.261235768 _1_ RTR  --- 39 ack 60 [0 0 0 0] ------- [1:0 0:0 32 0] [12 0] 0 0
r 1.261525200 _0_ MAC  --- 0 ACK 38 [0 0 0 0] 
s 1.261694768 _1_ MAC  --- 0 RTS 44 [62e 0 1 0] 
r 1.262047200 _0_ MAC  --- 0 RTS 44 [62e 0 1 0] 
s 1.262057200 _0_ MAC  --- 0 CTS 38 [4f4 1 0 0] 
r 1.262361633 _1_ MAC  --- 0 CTS 38 [4f4 1 0 0] 
s 1.262371633 _1_ MAC  --- 39 ack 118 [13a 0 1 800] ------- [1:0 0:0 32 0] [12 0] 0 0
r 1.263316066 _0_ MAC  --- 39 ack 60 [13a 0 1 800] ------- [1:0 0:0 32 0] [12 0] 1 0
s 1.263326066 _0_ MAC  --- 0 ACK 38 [0 1 0 0] 
r 1.263341066 _0_ AGT  --- 39 ack 60 [13a 0 1 800] ------- [1:0 0:0 32 0] [12 0] 1 0
s 1.263341066 _0_ AGT  --- 40 tcp 1040 [0 0 0 0] ------- [0:0 1:0 32 0] [25 0] 0 0
r 1.263341066 _0_ RTR  --- 40 tcp 1040 [0 0 0 0] ------- [0:0 1:0 32 0] [25 0] 0 0
s 1.263341066 _0_ RTR  --- 40 tcp 1060 [0 0 0 0] ------- [0:0 1:0 32 1] [25 0] 0 0
s 1.263341066 _0_ AGT  --- 41 tcp 1040 [0 0 0 0] ------- [0:0 1:0 32 0] [26 0] 0 0
r 1.263341066 _0_ RTR  --- 41 tcp 1040 [0 0 0 0] ------- [0:0 1:0 32 0] [26 0] 0 0
s 1.263341066 _0_ RTR  --- 41 tcp 1060 [0 0 0 0] ------- [0:0 1:0 32 1] [26 0] 0 0
r 1.263630498 _1_ MAC  --- 0 ACK 38 [0 1 0 0] 
s 1.263920066 _0_ MAC  --- 0 RTS 44 [256e 1 0 0] 
r 1.264272498 _1_ MAC  --- 0 RTS 44 [256e 1 0 0] 
s 1.264282498 _1_ MAC  --- 0 CTS 38 [2434 0 0 0] 
r 1.264586931 _0_ MAC  --- 0 CTS 38 [2434 0 0 0] 
s 1.264596931 _0_ MAC  --- 23 tcp 1118 [13a 1 0 800] ------- [0:0 1:0 32 1] [13 0] 0 0
r 1.273541364 _1_ MAC  --- 23 tcp 1060 [13a 1 0 800] ------- [0:0 1:0 32 1] [13 0] 1 0
s 1.273551364 _1_ MAC  --- 0 ACK 38 [0 0 0 0] 
r 1.273566364 _1_ AGT  --- 23 tcp 1060 [13a 1 0 800] ------- [0:0 1:0 32 1] [13 0] 1 0
s 1.273566364 _1_ AGT  --- 42 ack 40 [0 0 0 0] ------- [1:0 0:0 32 0] [13 0] 0 0
r 1.273566364 _1_ RTR  --- 42 ack 40 [0 0 0 0] ------- [1:0 0:0 32 0] [13 0] 0 0
s 1.273566364 _1_ RTR  --- 42 ack 60 [0 0 0 0] ------- [1:0 0:0 32 0] [13 0] 0 0
r 1.273855796 _0_ MAC  --- 0 ACK 38 [0 0 0 0] 
s 1.274185364 _1_ MAC  --- 0 RTS 44 [62e 0 1 0] 
r 1.274537796 _0_ MAC  --- 0 RTS 44 [62e 0 1 0] 
s 1.274547796 _0_ MAC  --- 0 CTS 38 [4f4 1 0 0] 
r 1.274852228 _1_ MAC  --- 0 CTS 38 [4f4 1 0 0] 
s 1.274862228 _1_ MAC  --- 42 ack 118 [13a 0 1 800] ------- [1:0 0:0 32 0] [13 0] 0 0
r 1.275806660 _0_ MAC  --- 42 ack 60 [13a 0 1 800] ------- [1:0 0:0 32 0] [13 0] 1 0
s 1.275816660 _0_ MAC  --- 0 ACK 38 [0 1 0 0] 
r 1.275831660 _0_ AGT  --- 42 ack 60 [13a 0 1 800] ------- [1:0 0:0 32 0] [13 0] 1 0
s 1.275831660 _0_ AGT  --- 43 tcp 1040 [0 0 0 0] ------- [0:0 1:0 32 0] [27 0] 0 0
r 1.275831660 _0_ RTR  --- 43 tcp 1040 [0 0 0 0] ------- [0:0 1:0 32 0] [27 0] 0 0
s 1.275831660 _0_ RTR  --- 43 tcp 1060 [0 0 0 0] ------- [0:0 1:0 32 1] [27 0] 0 0
s 1.275831660 _0_ AGT  --- 44 tcp 1040 [0 0 0 0] ------- [0:0 1:0 32 0] [28 0] 0 0
r 1.275831660 _0_ RTR  --- 44 tcp 1040 [0 0 0 0] ------- [0:0 1:0 32 0] [28 0] 0 0
s 1.275831660 _0_ RTR  --- 44 tcp 1060 [0 0 0 0] ------- [0:0 1:0 32 1] [28 0] 0 0
r 1.276121093 _1_ MAC  --- 0 ACK 38 [0 1 0 0] 
s 1.276190660 _0_ MAC  --- 0 RTS 44 [256e 1 0 0] 
r 1.276543093 _1_ MAC  --- 0 RTS 44 [256e 1 0 0] 
s 1.276553093 _1_ MAC  --- 0 CTS 38 [2434 0 0 0] 
r 1.276857525 _0_ MAC  --- 0 CTS 38 [2434 0 0 0] 
s 1.276867525 _0_ MAC  --- 24 tcp 1118 [13a 1 0 800] ------- [0:0 1:0 32 1] [14 0] 0 0
r 1.285811957 _1_ MAC  --- 24 tcp 1060 [13a 1 0 800] ------- [0:0 1:0 32 1] [14 0] 1 0
s 1.285821957 _1_ MAC  --- 0 ACK 38 [0 0 0 0] 
r 1.285836957 _1_ AGT  --- 24 tcp 1060 [13a 1 0 800] ------- [0:0 1:0 32 1] [14 0] 1 0
s 1.285836957 _1_ AGT  --- 45 ack 40 [0 0 0 0] ------- [1:0 0:0 32 0] [14 0] 0 0
r 1.285836957 _1_ RTR  --- 45 ack 40 [0 0 0 0] ------- [1:0 0:0 32 0] [14 0] 0 0
s 1.285836957 _1_ RTR  --- 45 ack 60 [0 0 0 0] ------- [1:0 0:0 32 0] [14 0] 0 0
r 1.286126389 _0_ MAC  --- 0 ACK 38 [0 0 0 0] 
s 1.286355957 _1_ MAC  --- 0 RTS 44 [62e 0 1 0] 
r 1.286708389 _0_ MAC  --- 0 RTS 44 [62e 0 1 0] 
s 1.286718389 _0_ MAC  --- 0 CTS 38 [4f4 1 0 0] 
r 1.287022821 _1_ MAC  --- 0 CTS 38 [4f4 1 0 0] 
s 1.287032821 _1_ MAC  --- 45 ack 118 [13a 0 1 800] ------- [1:0 0:0 32 0] [14 0] 0 0
r 1.287977252 _0_ MAC  --- 45 ack 60 [13a 0 1 800] ------- [1:0 0:0 32 0] [14 0] 1 0
s 1.287987252 _0_ MAC  --- 0 ACK 38 [0 1 0 0] 
r 1.288002252 _0_ AGT  --- 45 ack 60 [13a 0 1 800] ------- [1:0 0:0 32 0] [14 0] 1 0
s 1.288002252 _0_ AGT  --- 46 tcp 1040 [0 0 0 0] ------- [0:0 1:0 32 0] [29 0] 0 0
r 1.288002252 _0_ RTR  --- 46 tcp 1040 [0 0 0 0] ------- [0:0 1:0 32 0] [29 0] 0 0
s 1.288002252 _0_ RTR  --- 46 tcp 1060 [0 0 0 0] ------- [0:0 1:0 32 1] [29 0] 0 0
s 1.288002252 _0_ AGT  --- 47 tcp 1040 [0 0 0 0] ------- [0:0 1:0 32 0] [30 0] 0 0
r 1.288002252 _0_ RTR  --- 47 tcp 1040 [0 0 0 0] ------- [0:0 1:0 32 0] [30 0] 0 0
s 1.288002252 _0_ RTR  --- 47 tcp 1060 [0 0 0 0] ------- [0:0 1:0 32 1] [30 0] 0 0
r 1.288291684 _1_ MAC  --- 0 ACK 38 [0 1 0 0] 
s 1.288461252 _0_ MAC  --- 0 RTS 44 [256e 1 0 0] 
r 1.288813684 _1_ MAC  --- 0 RTS 44 [256e 1 0 0] 
s 1.288823684 _1_ MAC  --- 0 CTS 38 [2434 0 0 0] 
r 1.289128116 _0_ MAC  --- 0 CTS 38 [2434 0 0 0] 
s 1.289138116 _0_ MAC  --- 25 tcp 1118 [13a 1 0 800] ------- [0:0 1:0 32 1] [15 0] 0 0
r 1.298082548 _1_ MAC  --- 25 tcp 1060 [13a 1 0 800] ------- [0:0 1:0 32 1] [15 0] 1 0
s 1.298092548 _1_ MAC  --- 0 ACK 38 [0 0 0 0] 
r 1.298107548 _1_ AGT  --- 25 tcp 1060 [13a 1 0 800] ------- [0:0 1:0 32 1] [15 0] 1 0
s 1.298107548 _1_ AGT  --- 48 ack 40 [0 0 0 0] ------- [1:0 0:0 32 0] [15 0] 0 0
r 1.298107548 _1_ RTR  --- 48 ack 40 [0 0 0 0] ------- [1:0 0:0 32 0] [15 0] 0 0
s 1.298107548 _1_ RTR  --- 48 ack 60 [0 0 0 0] ------- [1:0 0:0 32 0] [15 0] 0 0
r 1.298396979 _0_ MAC  --- 0 ACK 38 [0 0 0 0] 
s 1.298446979 _0_ MAC  --- 0 RTS 44 [256e 1 0 0] 
r 1.298799411 _1_ MAC  --- 0 RTS 44 [256e 1 0 0] 