M 0.10000 0 (110.00, 110.00, 0.00), (100.00, 100.00), 5.00
M 0.10000 1 (210.00, 210.00, 0.00), (120.00, 120.00), 5.00
M 0.10000 2 (310.00, 310.00, 0.00), (150.00, 150.00), 5.00
s 0.100000000 _0_ AGT  --- 0 tcp 40 [0 0 0 0] ------- [0:0 2:0 32 0] [0 0] 0 0
r 0.100000000 _0_ RTR  --- 0 tcp 40 [0 0 0 0] ------- [0:0 2:0 32 0] [0 0] 0 0
s 0.100000000 _0_ RTR  --- 0 AODV 48 [0 0 0 0] ------- [0:255 -1:255 30 0] [0x2 1 1 [2 0] [0 4]] (REQUEST)
s 0.100115000 _0_ MAC  --- 0 AODV 106 [0 ffffffff 0 800] ------- [0:255 -1:255 30 0] [0x2 1 1 [2 0] [0 4]] (REQUEST)
r 0.100963471 _1_ MAC  --- 0 AODV 48 [0 ffffffff 0 800] ------- [0:255 -1:255 30 0] [0x2 1 1 [2 0] [0 4]] (REQUEST)
r 0.100988471 _1_ RTR  --- 0 AODV 48 [0 ffffffff 0 800] ------- [0:255 -1:255 30 0] [0x2 1 1 [2 0] [0 4]] (REQUEST)
s 0.101869698 _1_ RTR  --- 0 AODV 48 [0 ffffffff 0 800] ------- [1:255 -1:255 29 0] [0x2 2 1 [2 0] [0 4]] (REQUEST)
s 0.102264698 _1_ MAC  --- 0 AODV 106 [0 ffffffff 1 800] ------- [1:255 -1:255 29 0] [0x2 2 1 [2 0] [0 4]] (REQUEST)
r 0.103113170 _0_ MAC  --- 0 AODV 48 [0 ffffffff 1 800] ------- [1:255 -1:255 29 0] [0x2 2 1 [2 0] [0 4]] (REQUEST)
r 0.103113170 _2_ MAC  --- 0 AODV 48 [0 ffffffff 1 800] ------- [1:255 -1:255 29 0] [0x2 2 1 [2 0] [0 4]] (REQUEST)
r 0.103138170 _0_ RTR  --- 0 AODV 48 [0 ffffffff 1 800] ------- [1:255 -1:255 29 0] [0x2 2 1 [2 0] [0 4]] (REQUEST)
r 0.103138170 _2_ RTR  --- 0 AODV 48 [0 ffffffff 1 800] ------- [1:255 -1:255 29 0] [0x2 2 1 [2 0] [0 4]] (REQUEST)
s 0.103138170 _2_ RTR  --- 0 AODV 44 [0 0 0 0] ------- [2:255 0:255 30 1] [0x4 1 [2 4] 10.000000] (REPLY)
s 0.103353170 _2_ MAC  --- 0 ARP 86 [0 ffffffff 2 806] ------- [REQUEST 2/2 0/1]
r 0.104041641 _1_ MAC  --- 0 ARP 28 [0 ffffffff 2 806] ------- [REQUEST 2/2 0/1]
s 0.104336641 _1_ MAC  --- 0 RTS 44 [52e 2 1 0] 
r 0.104689112 _2_ MAC  --- 0 RTS 44 [52e 2 1 0] 
s 0.104699112 _2_ MAC  --- 0 CTS 38 [3f4 1 0 0] 
r 0.105003584 _1_ MAC  --- 0 CTS 38 [3f4 1 0 0] 
s 0.105013584 _1_ MAC  --- 0 ARP 86 [13a 2 1 806] ------- [REPLY 1/1 2/2]
r 0.105702055 _2_ MAC  --- 0 ARP 28 [13a 2 1 806] ------- [REPLY 1/1 2/2]
s 0.105712055 _2_ MAC  --- 0 ACK 38 [0 1 0 0] 
r 0.106016527 _1_ MAC  --- 0 ACK 38 [0 1 0 0] 
s 0.106426055 _2_ MAC  --- 0 RTS 44 [5ae 1 2 0] 
r 0.106778527 _1_ MAC  --- 0 RTS 44 [5ae 1 2 0] 
s 0.106788527 _1_ MAC  --- 0 CTS 38 [474 2 0 0] 
r 0.107092998 _2_ MAC  --- 0 CTS 38 [474 2 0 0] 
s 0.107102998 _2_ MAC  --- 0 AODV 102 [13a 1 2 800] ------- [2:255 0:255 30 1] [0x4 1 [2 4] 10.000000] (REPLY)
r 0.107919469 _1_ MAC  --- 0 AODV 44 [13a 1 2 800] ------- [2:255 0:255 30 1] [0x4 1 [2 4] 10.000000] (REPLY)
s 0.107929469 _1_ MAC  --- 0 ACK 38 [0 2 0 0] 
r 0.107944469 _1_ RTR  --- 0 AODV 44 [13a 1 2 800] ------- [2:255 0:255 30 1] [0x4 1 [2 4] 10.000000] (REPLY)
f 0.107944469 _1_ RTR  --- 0 AODV 44 [13a 1 2 800] ------- [2:255 0:255 29 0] [0x4 2 [2 4] 10.000000] (REPLY)
r 0.108233941 _2_ MAC  --- 0 ACK 38 [0 2 0 0] 
s 0.108523469 _1_ MAC  --- 0 ARP 86 [0 ffffffff 1 806] ------- [REQUEST 1/1 0/0]
r 0.109211941 _0_ MAC  --- 0 ARP 28 [0 ffffffff 1 806] ------- [REQUEST 1/1 0/0]
r 0.109211941 _2_ MAC  --- 0 ARP 28 [0 ffffffff 1 806] ------- [REQUEST 1/1 0/0]
s 0.109426941 _0_ MAC  --- 0 RTS 44 [52e 1 0 0] 
r 0.109779412 _1_ MAC  --- 0 RTS 44 [52e 1 0 0] 
s 0.109789412 _1_ MAC  --- 0 CTS 38 [3f4 0 0 0] 
r 0.110093884 _0_ MAC  --- 0 CTS 38 [3f4 0 0 0] 
s 0.110103884 _0_ MAC  --- 0 ARP 86 [13a 1 0 806] ------- [REPLY 0/0 1/1]
r 0.110792355 _1_ MAC  --- 0 ARP 28 [13a 1 0 806] ------- [REPLY 0/0 1/1]
s 0.110802355 _1_ MAC  --- 0 ACK 38 [0 0 0 0] 
r 0.111106826 _0_ MAC  --- 0 ACK 38 [0 0 0 0] 
s 0.111536355 _1_ MAC  --- 0 RTS 44 [5ae 0 1 0] 
r 0.111888826 _0_ MAC  --- 0 RTS 44 [5ae 0 1 0] 
s 0.111898826 _0_ MAC  --- 0 CTS 38 [474 1 0 0] 
r 0.112203298 _1_ MAC  --- 0 CTS 38 [474 1 0 0] 
s 0.112213298 _1_ MAC  --- 0 AODV 102 [13a 0 1 800] ------- [2:255 0:255 29 0] [0x4 2 [2 4] 10.000000] (REPLY)
r 0.113029769 _0_ MAC  --- 0 AODV 44 [13a 0 1 800] ------- [2:255 0:255 29 0] [0x4 2 [2 4] 10.000000] (REPLY)
s 0.113039769 _0_ MAC  --- 0 ACK 38 [0 1 0 0] 
r 0.113054769 _0_ RTR  --- 0 AODV 44 [13a 0 1 800] ------- [2:255 0:255 29 0] [0x4 2 [2 4] 10.000000] (REPLY)
s 0.113054769 _0_ RTR  --- 0 tcp 40 [0 0 0 0] ------- [0:0 2:0 30 1] [0 0] 0 0
r 0.113344241 _1_ MAC  --- 0 ACK 38 [0 1 0 0] 
s 0.113633769 _0_ MAC  --- 0 RTS 44 [58e 1 0 0] 
r 0.113986241 _1_ MAC  --- 0 RTS 44 [58e 1 0 0] 
s 0.113996241 _1_ MAC  --- 0 CTS 38 [454 0 0 0] 
r 0.114300712 _0_ MAC  --- 0 CTS 38 [454 0 0 0] 
s 0.114310712 _0_ MAC  --- 0 tcp 98 [13a 1 0 800] ------- [0:0 2:0 30 1] [0 0] 0 0
r 0.115095183 _1_ MAC  --- 0 tcp 40 [13a 1 0 800] ------- [0:0 2:0 30 1] [0 0] 1 0
s 0.115105183 _1_ MAC  --- 0 ACK 38 [0 0 0 0] 
r 0.115120183 _1_ RTR  --- 0 tcp 40 [13a 1 0 800] ------- [0:0 2:0 30 1] [0 0] 1 0
f 0.115120183 _1_ RTR  --- 0 tcp 40 [13a 1 0 800] ------- [0:0 2:0 29 2] [0 0] 1 0
r 0.115409655 _0_ MAC  --- 0 ACK 38 [0 0 0 0] 
s 0.115939183 _1_ MAC  --- 0 RTS 44 [58e 2 1 0] 
r 0.116291655 _2_ MAC  --- 0 RTS 44 [58e 2 1 0] 
s 0.116301655 _2_ MAC  --- 0 CTS 38 [454 1 0 0] 
r 0.116606126 _1_ MAC  --- 0 CTS 38 [454 1 0 0] 
s 0.116616126 _1_ MAC  --- 0 tcp 98 [13a 2 1 800] ------- [0:0 2:0 29 2] [0 0] 1 0
r 0.117400598 _2_ MAC  --- 0 tcp 40 [13a 2 1 800] ------- [0:0 2:0 29 2] [0 0] 2 0
s 0.117410598 _2_ MAC  --- 0 ACK 38 [0 1 0 0] 
r 0.117425598 _2_ AGT  --- 0 tcp 40 [13a 2 1 800] ------- [0:0 2:0 29 2] [0 0] 2 0
s 0.117425598 _2_ AGT  --- 1 ack 40 [0 0 0 0] ------- [2:0 0:0 32 0] [0 0] 0 0
r 0.117425598 _2_ RTR  --- 1 ack 40 [0 0 0 0] ------- [2:0 0:0 32 0] [0 0] 0 0
s 0.117425598 _2_ RTR  --- 1 ack 40 [0 0 0 0] ------- [2:0 0:0 30 1] [0 0] 0 0
r 0.117715069 _1_ MAC  --- 0 ACK 38 [0 1 0 0] 
s 0.118084598 _2_ MAC  --- 0 RTS 44 [58e 1 2 0] 
r 0.118437069 _1_ MAC  --- 0 RTS 44 [58e 1 2 0] 
s 0.118447069 _1_ MAC  --- 0 CTS 38 [454 2 0 0] 
r 0.118751540 _2_ MAC  --- 0 CTS 38 [454 2 0 0] 
s 0.118761540 _2_ MAC  --- 1 ack 98 [13a 1 2 800] ------- [2:0 0:0 30 1] [0 0] 0 0
r 0.119546012 _1_ MAC  --- 1 ack 40 [13a 1 2 800] ------- [2:0 0:0 30 1] [0 0] 1 0
s 0.119556012 _1_ MAC  --- 0 ACK 38 [0 2 0 0] 
r 0.119571012 _1_ RTR  --- 1 ack 40 [13a 1 2 800] ------- [2:0 0:0 30 1] [0 0] 1 0
f 0.119571012 _1_ RTR  --- 1 ack 40 [13a 1 2 800] ------- [2:0 0:0 29 0] [0 0] 1 0
r 0.119860483 _2_ MAC  --- 0 ACK 38 [0 2 0 0] 
s 0.120130012 _1_ MAC  --- 0 RTS 44 [58e 0 1 0] 
r 0.120482483 _0_ MAC  --- 0 RTS 44 [58e 0 1 0] 
s 0.120492483 _0_ MAC  --- 0 CTS 38 [454 1 0 0] 
r 0.120796955 _1_ MAC  --- 0 CTS 38 [454 1 0 0] 
s 0.120806955 _1_ MAC  --- 1 ack 98 [13a 0 1 800] ------- [2:0 0:0 29 0] [0 0] 1 0
r 0.121591426 _0_ MAC  --- 1 ack 40 [13a 0 1 800] ------- [2:0 0:0 29 0] [0 0] 2 0
s 0.121601426 _0_ MAC  --- 0 ACK 38 [0 1 0 0] 
r 0.121616426 _0_ AGT  --- 1 ack 40 [13a 0 1 800] ------- [2:0 0:0 29 0] [0 0] 2 0
s 0.121616426 _0_ AGT  --- 2 tcp 1040 [0 0 0 0] ------- [0:0 2:0 32 0] [1 0] 0 0
r 0.121616426 _0_ RTR  --- 2 tcp 1040 [0 0 0 0] ------- [0:0 2:0 32 0] [1 0] 0 0
s 0.121616426 _0_ AGT  --- 3 tcp 1040 [0 0 0 0] ------- [0:0 2:0 32 0] [2 0] 0 0
r 0.121616426 _0_ RTR  --- 3 tcp 1040 [0 0 0 0] ------- [0:0 2:0 32 0] [2 0] 0 0
s 0.121616426 _0_ RTR  --- 2 tcp 1040 [0 0 0 0] ------- [0:0 2:0 30 1] [1 0] 0 0
s 0.121616426 _0_ RTR  --- 3 tcp 1040 [0 0 0 0] ------- [0:0 2:0 30 1] [2 0] 0 0
r 0.121905897 _1_ MAC  --- 0 ACK 38 [0 1 0 0] 
s 0.122195426 _0_ MAC  --- 0 RTS 44 [24ce 1 0 0] 
r 0.122547897 _1_ MAC  --- 0 RTS 44 [24ce 1 0 0] 
s 0.122557897 _1_ MAC  --- 0 CTS 38 [2394 0 0 0] 
r 0.122862369 _0_ MAC  --- 0 CTS 38 [2394 0 0 0] 
s 0.122872369 _0_ MAC  --- 2 tcp 1098 [13a 1 0 800] ------- [0:0 2:0 30 1] [1 0] 0 0
r 0.131656840 _1_ MAC  --- 2 tcp 1040 [13a 1 0 800] ------- [0:0 2:0 30 1] [1 0] 1 0
s 0.131666840 _1_ MAC  --- 0 ACK 38 [0 0 0 0] 
r 0.131681840 _1_ RTR  --- 2 tcp 1040 [13a 1 0 800] ------- [0:0 2:0 30 1] [1 0] 1 0
f 0.131681840 _1_ RTR  --- 2 tcp 1040 [13a 1 0 800] ------- [0:0 2:0 29 2] [1 0] 1 0
r 0.131971312 _0_ MAC  --- 0 ACK 38 [0 0 0 0] 
s 0.132201312 _0_ MAC  --- 0 RTS 44 [24ce 1 0 0] 
r 0.132553783 _1_ MAC  --- 0 RTS 44 [24ce 1 0 0] 
s 0.132563783 _1_ MAC  --- 0 CTS 38 [2394 0 0 0] 
r 0.132868254 _0_ MAC  --- 0 CTS 38 [2394 0 0 0] 
s 0.132878254 _0_ MAC  --- 3 tcp 1098 [13a 1 0 800] ------- [0:0 2:0 30 1] [2 0] 0 0
r 0.141662726 _1_ MAC  --- 3 tcp 1040 [13a 1 0 800] ------- [0:0 2:0 30 1] [2 0] 1 0
s 0.141672726 _1_ MAC  --- 0 ACK 38 [0 0 0 0] 
r 0.141687726 _1_ RTR  --- 3 tcp 1040 [13a 1 0 800] ------- [0:0 2:0 30 1] [2 0] 1 0
f 0.141687726 _1_ RTR  --- 3 tcp 1040 [13a 1 0 800] ------- [0:0 2:0 29 2] [2 0] 1 0
r 0.141977197 _0_ MAC  --- 0 ACK 38 [0 0 0 0] 
s 0.142046726 _1_ MAC  --- 0 RTS 44 [24ce 2 1 0] 
r 0.142399197 _2_ MAC  --- 0 RTS 44 [24ce 2 1 0] 
s 0.142409197 _2_ MAC  --- 0 CTS 38 [2394 1 0 0] 
r 0.142713669 _1_ MAC  --- 0 CTS 38 [2394 1 0 0] 
s 0.142723669 _1_ MAC  --- 2 tcp 1098 [13a 2 1 800] ------- [0:0 2:0 29 2] [1 0] 1 0
r 0.151508140 _2_ MAC  --- 2 tcp 1040 [13a 2 1 800] ------- [0:0 2:0 29 2] [1 0] 2 0
s 0.151518140 _2_ MAC  --- 0 ACK 38 [0 1 0 0] 
r 0.151533140 _2_ AGT  --- 2 tcp 1040 [13a 2 1 800] ------- [0:0 2:0 29 2] [1 0] 2 0
s 0.151533140 _2_ AGT  --- 4 ack 40 [0 0 0 0] ------- [2:0 0:0 32 0] [1 0] 0 0
r 0.151533140 _2_ RTR  --- 4 ack 40 [0 0 0 0] ------- [2:0 0:0 32 0] [1 0] 0 0
s 0.151533140 _2_ RTR  --- 4 ack 40 [0 0 0 0] ------- [2:0 0:0 30 1] [1 0] 0 0
r 0.151822611 _1_ MAC  --- 0 ACK 38 [0 1 0 0] 
s 0.152272140 _2_ MAC  --- 0 RTS 44 [58e 1 2 0] 
r 0.152624611 _1_ MAC  --- 0 RTS 44 [58e 1 2 0] 
s 0.152634611 _1_ MAC  --- 0 CTS 38 [454 2 0 0] 
r 0.152939083 _2_ MAC  --- 0 CTS 38 [454 2 0 0] 
s 0.152949083 _2_ MAC  --- 4 ack 98 [13a 1 2 800] ------- [2:0 0:0 30 1] [1 0] 0 0
r 0.153733554 _1_ MAC  --- 4 ack 40 [13a 1 2 800] ------- [2:0 0:0 30 1] [1 0] 1 0
s 0.153743554 _1_ MAC  --- 0 ACK 38 [0 2 0 0] 
r 0.153758554 _1_ RTR  --- 4 ack 40 [13a 1 2 800] ------- [2:0 0:0 30 1] [1 0] 1 0
f 0.153758554 _1_ RTR  --- 4 ack 40 [13a 1 2 800] ------- [2:0 0:0 29 0] [1 0] 1 0
r 0.154048026 _2_ MAC  --- 0 ACK 38 [0 2 0 0] 
s 0.154237554 _1_ MAC  --- 0 RTS 44 [24ce 2 1 0] 
r 0.154590026 _2_ MAC  --- 0 RTS 44 [24ce 2 1 0] 
s 0.154600026 _2_ MAC  --- 0 CTS 38 [2394 1 0 0] 
r 0.154904497 _1_ MAC  --- 0 CTS 38 [2394 1 0 0] 
s 0.154914497 _1_ MAC  --- 3 tcp 1098 [13a 2 1 800] ------- [0:0 2:0 29 2] [2 0] 1 0
r 0.163698969 _2_ MAC  --- 3 tcp 1040 [13a 2 1 800] ------- [0:0 2:0 29 2] [2 0] 2 0
s 0.163708969 _2_ MAC  --- 0 ACK 38 [0 1 0 0] 
r 0.163723969 _2_ AGT  --- 3 tcp 1040 [13a 2 1 800] ------- [0:0 2:0 29 2] [2 0] 2 0
s 0.163723969 _2_ AGT  --- 5 ack 40 [0 0 0 0] ------- [2:0 0:0 32 0] [2 0] 0 0
r 0.163723969 _2_ RTR  --- 5 ack 40 [0 0 0 0] ------- [2:0 0:0 32 0] [2 0] 0 0
s 0.163723969 _2_ RTR  --- 5 ack 40 [0 0 0 0] ------- [2:0 0:0 30 1] [2 0] 0 0
r 0.164013440 _1_ MAC  --- 0 ACK 38 [0 1 0 0] 
s 0.164103440 _1_ MAC  --- 0 RTS 44 [58e 0 1 0] 
r 0.164455911 _0_ MAC  --- 0 RTS 44 [58e 0 1 0] 
s 0.164465911 _0_ MAC  --- 0 CTS 38 [454 1 0 0] 
r 0.164770383 _1_ MAC  --- 0 CTS 38 [454 1 0 0] 
s 0.164780383 _1_ MAC  --- 4 ack 98 [13a 0 1 800] ------- [2:0 0:0 29 0] [1 0] 1 0
r 0.165564854 _0_ MAC  --- 4 ack 40 [13a 0 1 800] ------- [2:0 0:0 29 0] [1 0] 2 0
s 0.165574854 _0_ MAC  --- 0 ACK 38 [0 1 0 0] 
r 0.165589854 _0_ AGT  --- 4 ack 40 [13a 0 1 800] ------- [2:0 0:0 29 0] [1 0] 2 0
s 0.165589854 _0_ AGT  --- 6 tcp 1040 [0 0 0 0] ------- [0:0 2:0 32 0] [3 0] 0 0
r 0.165589854 _0_ RTR  --- 6 tcp 1040 [0 0 0 0] ------- [0:0 2:0 32 0] [3 0] 0 0
s 0.165589854 _0_ AGT  --- 7 tcp 1040 [0 0 0 0] ------- [0:0 2:0 32 0] [4 0] 0 0
r 0.165589854 _0_ RTR  --- 7 tcp 1040 [0 0 0 0] ------- [0:0 2:0 32 0] [4 0] 0 0
s 0.165589854 _0_ RTR  --- 6 tcp 1040 [0 0 0 0] ------- [0:0 2:0 30 1] [3 0] 0 0
s 0.165589854 _0_ RTR  --- 7 tcp 1040 [0 0 0 0] ------- [0:0 2:0 30 1] [4 0] 0 0
r 0.165879326 _1_ MAC  --- 0 ACK 38 [0 1 0 0] 
s 0.166408854 _0_ MAC  --- 0 RTS 44 [24ce 1 0 0] 
r 0.166761326 _1_ MAC  --- 0 RTS 44 [24ce 1 0 0] 
s 0.166771326 _1_ MAC  --- 0 CTS 38 [2394 0 0 0] 
r 0.167075797 _0_ MAC  --- 0 CTS 38 [2394 0 0 0] 
s 0.167085797 _0_ MAC  --- 6 tcp 1098 [13a 1 0 800] ------- [0:0 2:0 30 1] [3 0] 0 0
r 0.175870268 _1_ MAC  --- 6 tcp 1040 [13a 1 0 800] ------- [0:0 2:0 30 1] [3 0] 1 0
s 0.175880268 _1_ MAC  --- 0 ACK 38 [0 0 0 0] 
r 0.175895268 _1_ RTR  --- 6 tcp 1040 [13a 1 0 800] ------- [0:0 2:0 30 1] [3 0] 1 0
f 0.175895268 _1_ RTR  --- 6 tcp 1040 [13a 1 0 800] ------- [0:0 2:0 29 2] [3 0] 1 0
r 0.176184740 _0_ MAC  --- 0 ACK 38 [0 0 0 0] 
s 0.176364740 _2_ MAC  --- 0 RTS 44 [58e 1 2 0] 
r 0.176717211 _1_ MAC  --- 0 RTS 44 [58e 1 2 0] 
s 0.176727211 _1_ MAC  --- 0 CTS 38 [454 2 0 0] 
r 0.177031683 _2_ MAC  --- 0 CTS 38 [454 2 0 0] 
s 0.177041683 _2_ MAC  --- 5 ack 98 [13a 1 2 800] ------- [2:0 0:0 30 1] [2 0] 0 0
r 0.177826154 _1_ MAC  --- 5 ack 40 [13a 1 2 800] ------- [2:0 0:0 30 1] [2 0] 1 0
s 0.177836154 _1_ MAC  --- 0 ACK 38 [0 2 0 0] 
r 0.177851154 _1_ RTR  --- 5 ack 40 [13a 1 2 800] ------- [2:0 0:0 30 1] [2 0] 1 0
f 0.177851154 _1_ RTR  --- 5 ack 40 [13a 1 2 800] ------- [2:0 0:0 29 0] [2 0] 1 0
r 0.178140625 _2_ MAC  --- 0 ACK 38 [0 2 0 0] 
s 0.178260625 _0_ MAC  --- 0 RTS 44 [24ce 1 0 0] 
r 0.178613097 _1_ MAC  --- 0 RTS 44 [24ce 1 0 0] 
s 0.178623097 _1_ MAC  --- 0 CTS 38 [2394 0 0 0] 
r 0.178927568 _0_ MAC  --- 0 CTS 38 [2394 0 0 0] 
s 0.178937568 _0_ MAC  --- 7 tcp 1098 [13a 1 0 800] ------- [0:0 2:0 30 1] [4 0] 0 0
r 0.187722040 _1_ MAC  --- 7 tcp 1040 [13a 1 0 800] ------- [0:0 2:0 30 1] [4 0] 1 0
s 0.187732040 _1_ MAC  --- 0 ACK 38 [0 0 0 0] 
r 0.187747040 _1_ RTR  --- 7 tcp 1040 [13a 1 0 800] ------- [0:0 2:0 30 1] [4 0] 1 0
f 0.187747040 _1_ RTR  --- 7 tcp 1040 [13a 1 0 800] ------- [0:0 2:0 29 2] [4 0] 1 0
r 0.188036511 _0_ MAC  --- 0 ACK 38 [0 0 0 0] 
s 0.188266040 _1_ MAC  --- 0 RTS 44 [24ce 2 1 0] 
r 0.188618511 _2_ MAC  --- 0 RTS 44 [24ce 2 1 0] 
s 0.188628511 _2_ MAC  --- 0 CTS 38 [2394 1 0 0] 
r 0.188932982 _1_ MAC  --- 0 CTS 38 [2394 1 0 0] 
s 0.188942982 _1_ MAC  --- 6 tcp 1098 [13a 2 1 800] ------- [0:0 2:0 29 2] [3 0] 1 0
r 0.197727454 _2_ MAC  --- 6 tcp 1040 [13a 2 1 800] ------- [0:0 2:0 29 2] [3 0] 2 0
s 0.197737454 _2_ MAC  --- 0 ACK 38 [0 1 0 0] 
r 0.197752454 _2_ AGT  --- 6 tcp 1040 [13a 2 1 800] ------- [0:0 2:0 29 2] [3 0] 2 0
s 0.197752454 _2_ AGT  --- 8 ack 40 [0 0 0 0] ------- [2:0 0:0 32 0] [3 0] 0 0
r 0.197752454 _2_ RTR  --- 8 ack 40 [0 0 0 0] ------- [2:0 0:0 32 0] [3 0] 0 0
s 0.197752454 _2_ RTR  --- 8 ack 40 [0 0 0 0] ------- [2:0 0:0 30 1] [3 0] 0 0
r 0.198041925 _1_ MAC  --- 0 ACK 38 [0 1 0 0] 
s 0.198191925 _1_ MAC  --- 0 RTS 44 [58e 0 1 0] 
r 0.198544397 _0_ MAC  --- 0 RTS 44 [58e 0 1 0] 
s 0.198554397 _0_ MAC  --- 0 CTS 38 [454 1 0 0] 
r 0.198858868 _1_ MAC  --- 0 CTS 38 [454 1 0 0] 
s 0.198868868 _1_ MAC  --- 5 ack 98 [13a 0 1 800] ------- [2:0 0:0 29 0] [2 0] 1 0
r 0.199653339 _0_ MAC  --- 5 ack 40 [13a 0 1 800] ------- [2:0 0:0 29 0] [2 0] 2 0
s 0.199663339 _0_ MAC  --- 0 ACK 38 [0 1 0 0] 
r 0.199678339 _0_ AGT  --- 5 ack 40 [13a 0 1 800] ------- [2:0 0:0 29 0] [2 0] 2 0
s 0.199678339 _0_ AGT  --- 9 tcp 1040 [0 0 0 0] ------- [0:0 2:0 32 0] [5 0] 0 0
r 0.199678339 _0_ RTR  --- 9 tcp 1040 [0 0 0 0] ------- [0:0 2:0 32 0] [5 0] 0 0
s 0.199678339 _0_ AGT  --- 10 tcp 1040 [0 0 0 0] ------- [0:0 2:0 32 0] [6 0] 0 0
r 0.199678339 _0_ RTR  --- 10 tcp 1040 [0 0 0 0] ------- [0:0 2:0 32 0] [6 0] 0 0
s 0.199678339 _0_ RTR  --- 9 tcp 1040 [0 0 0 0] ------- [0:0 2:0 30 1] [5 0] 0 0
s 0.199678339 _0_ RTR  --- 10 tcp 1040 [0 0 0 0] ------- [0:0 2:0 30 1] [6 0] 0 0
r 0.199967811 _1_ MAC  --- 0 ACK 38 [0 1 0 0] 
s 0.200117339 _0_ MAC  --- 0 RTS 44 [24ce 1 0 0] 
r 0.200469811 _1_ MAC  --- 0 RTS 44 [24ce 1 0 0] 
s 0.200479811 _1_ MAC  --- 0 CTS 38 [2394 0 0 0] 
r 0.200784282 _0_ MAC  --- 0 CTS 38 [2394 0 0 0] 
s 0.200794282 _0_ MAC  --- 9 tcp 1098 [13a 1 0 800] ------- [0:0 2:0 30 1] [5 0] 0 0
r 0.209578754 _1_ MAC  --- 9 tcp 1040 [13a 1 0 800] ------- [0:0 2:0 30 1] [5 0] 1 0
s 0.209588754 _1_ MAC  --- 0 ACK 38 [0 0 0 0] 
r 0.209603754 _1_ RTR  --- 9 tcp 1040 [13a 1 0 800] ------- [0:0 2:0 30 1] [5 0] 1 0
f 0.209603754 _1_ RTR  --- 9 tcp 1040 [13a 1 0 800] ------- [0:0 2:0 29 2] [5 0] 1 0
r 0.209893225 _0_ MAC  --- 0 ACK 38 [0 0 0 0] 
s 0.210093225 _2_ MAC  --- 0 RTS 44 [58e 1 2 0] 
r 0.210445696 _1_ MAC  --- 0 RTS 44 [58e 1 2 0] 
s 0.210455696 _1_ MAC  --- 0 CTS 38 [454 2 0 0] 
r 0.210760168 _2_ MAC  --- 0 CTS 38 [454 2 0 0] 
s 0.210770168 _2_ MAC  --- 8 ack 98 [13a 1 2 800] ------- [2:0 0:0 30 1] [3 0] 0 0
r 0.211554639 _1_ MAC  --- 8 ack 40 [13a 1 2 800] ------- [2:0 0:0 30 1] [3 0] 1 0
s 0.211564639 _1_ MAC  --- 0 ACK 38 [0 2 0 0] 
r 0.211579639 _1_ RTR  --- 8 ack 40 [13a 1 2 800] ------- [2:0 0:0 30 1] [3 0] 1 0
f 0.211579639 _1_ RTR  --- 8 ack 40 [13a 1 2 800] ------- [2:0 0:0 29 0] [3 0] 1 0
r 0.211869111 _2_ MAC  --- 0 ACK 38 [0 2 0 0] 
s 0.212049111 _0_ MAC  --- 0 RTS 44 [24ce 1 0 0] 
r 0.212401582 _1_ MAC  --- 0 RTS 44 [24ce 1 0 0] 
s 0.212411582 _1_ MAC  --- 0 CTS 38 [2394 0 0 0] 
r 0.212716053 _0_ MAC  --- 0 CTS 38 [2394 0 0 0] 
s 0.212726053 _0_ MAC  --- 10 tcp 1098 [13a 1 0 800] ------- [0:0 2:0 30 1] [6 0] 0 0
r 0.221510525 _1_ MAC  --- 10 tcp 1040 [13a 1 0 800] ------- [0:0 2:0 30 1] [6 0] 1 0
s 0.221520525 _1_ MAC  --- 0 ACK 38 [0 0 0 0] 
r 0.221535525 _1_ RTR  --- 10 tcp 1040 [13a 1 0 800] ------- [0:0 2:0 30 1] [6 0] 1 0
f 0.221535525 _1_ RTR  --- 10 tcp 1040 [13a 1 0 800] ------- [0:0 2:0 29 2] [6 0] 1 0
r 0.221824996 _0_ MAC  --- 0 ACK 38 [0 0 0 0] 
s 0.222034525 _1_ MAC  --- 0 RTS 44 [24ce 2 1 0] 
r 0.222386996 _2_ MAC  --- 0 RTS 44 [24ce 2 1 0] 
s 0.222396996 _2_ MAC  --- 0 CTS 38 [2394 1 0 0] 
r 0.222701468 _1_ MAC  --- 0 CTS 38 [2394 1 0 0] 
s 0.222711468 _1_ MAC  --- 7 tcp 1098 [13a 2 1 800] ------- [0:0 2:0 29 2] [4 0] 1 0
r 0.231495939 _2_ MAC  --- 7 tcp 1040 [13a 2 1 800] ------- [0:0 2:0 29 2] [4 0] 2 0
s 0.231505939 _2_ MAC  --- 0 ACK 38 [0 1 0 0] 
r 0.231520939 _2_ AGT  --- 7 tcp 1040 [13a 2 1 800] ------- [0:0 2:0 29 2] [4 0] 2 0
s 0.231520939 _2_ AGT  --- 11 ack 40 [0 0 0 0] ------- [2:0 0:0 32 0] [4 0] 0 0
r 0.231520939 _2_ RTR  --- 11 ack 40 [0 0 0 0] ------- [2:0 0:0 32 0] [4 0] 0 0
s 0.231520939 _2_ RTR  --- 11 ack 40 [0 0 0 0] ------- [2:0 0:0 30 1] [4 0] 0 0
r 0.231810410 _1_ MAC  --- 0 ACK 38 [0 1 0 0] 
s 0.231919939 _2_ MAC  --- 0 RTS 44 [58e 1 2 0] 
r 0.232272410 _1_ MAC  --- 0 RTS 44 [58e 1 2 0] 
s 0.232282410 _1_ MAC  --- 0 CTS 38 [454 2 0 0] 
r 0.232586882 _2_ MAC  --- 0 CTS 38 [454 2 0 0] 
s 0.232596882 _2_ MAC  --- 11 ack 98 [13a 1 2 800] ------- [2:0 0:0 30 1] [4 0] 0 0
r 0.233381353 _1_ MAC  --- 11 ack 40 [13a 1 2 800] ------- [2:0 0:0 30 1] [4 0] 1 0
s 0.233391353 _1_ MAC  --- 0 ACK 38 [0 2 0 0] 
r 0.233406353 _1_ RTR  --- 11 ack 40 [13a 1 2 800] ------- [2:0 0:0 30 1] [4 0] 1 0
f 0.233406353 _1_ RTR  --- 11 ack 40 [13a 1 2 800] ------- [2:0 0:0 29 0] [4 0] 1 0
r 0.233695825 _2_ MAC  --- 0 ACK 38 [0 2 0 0] 
s 0.233805353 _1_ MAC  --- 0 RTS 44 [24ce 2 1 0] 
r 0.234157825 _2_ MAC  --- 0 RTS 44 [24ce 2 1 0] 
s 0.234167825 _2_ MAC  --- 0 CTS 38 [2394 1 0 0] 
r 0.234472296 _1_ MAC  --- 0 CTS 38 [2394 1 0 0] 
s 0.234482296 _1_ MAC  --- 9 tcp 1098 [13a 2 1 800] ------- [0:0 2:0 29 2] [5 0] 1 0
r 0.243266768 _2_ MAC  --- 9 tcp 1040 [13a 2 1 800] ------- [0:0 2:0 29 2] [5 0] 2 0
s 0.243276768 _2_ MAC  --- 0 ACK 38 [0 1 0 0] 
r 0.243291768 _2_ AGT  --- 9 tcp 1040 [13a 2 1 800] ------- [0:0 2:0 29 2] [5 0] 2 0
s 0.243291768 _2_ AGT  --- 12 ack 40 [0 0 0 0] ------- [2:0 0:0 32 0] [5 0] 0 0
r 0.243291768 _2_ RTR  --- 12 ack 40 [0 0 0 0] ------- [2:0 0:0 32 0] [5 0] 0 0
s 0.243291768 _2_ RTR  --- 12 ack 40 [0 0 0 0] ------- [2:0 0:0 30 1] [5 0] 0 0
r 0.243581239 _1_ MAC  --- 0 ACK 38 [0 1 0 0] 
s 0.243910768 _2_ MAC  --- 0 RTS 44 [58e 1 2 0] 
r 0.244263239 _1_ MAC  --- 0 RTS 44 [58e 1 2 0] 
s 0.244273239 _1_ MAC  --- 0 CTS 38 [454 2 0 0] 
r 0.244577710 _2_ MAC  --- 0 CTS 38 [454 2 0 0] 
s 0.244587710 _2_ MAC  --- 12 ack 98 [13a 1 2 800] ------- [2:0 0:0 30 1] [5 0] 0 0
r 0.245372182 _1_ MAC  --- 12 ack 40 [13a 1 2 800] ------- [2:0 0:0 30 1] [5 0] 1 0
s 0.245382182 _1_ MAC  --- 0 ACK 38 [0 2 0 0] 
r 0.245397182 _1_ RTR  --- 12 ack 40 [13a 1 2 800] ------- [2:0 0:0 30 1] [5 0] 1 0
f 0.245397182 _1_ RTR  --- 12 ack 40 [13a 1 2 800] ------- [2:0 0:0 29 0] [5 0] 1 0
r 0.245686653 _2_ MAC  --- 0 ACK 38 [0 2 0 0] 
s 0.245956182 _1_ MAC  --- 0 RTS 44 [58e 0 1 0] 
r 0.246308653 _0_ MAC  --- 0 RTS 44 [58e 0 1 0] 
s 0.246318653 _0_ MAC  --- 0 CTS 38 [454 1 0 0] 
r 0.246623125 _1_ MAC  --- 0 CTS 38 [454 1 0 0] 
s 0.246633125 _1_ MAC  --- 8 ack 98 [13a 0 1 800] ------- [2:0 0:0 29 0] [3 0] 1 0
r 0.247417596 _0_ MAC  --- 8 ack 40 [13a 0 1 800] ------- [2:0 0:0 29 0] [3 0] 2 0
s 0.247427596 _0_ MAC  --- 0 ACK 38 [0 1 0 0] 
r 0.247442596 _0_ AGT  --- 8 ack 40 [13a 0 1 800] ------- [2:0 0:0 29 0] [3 0] 2 0
s 0.247442596 _0_ AGT  --- 13 tcp 1040 [0 0 0 0] ------- [0:0 2:0 32 0] [7 0] 0 0
r 0.247442596 _0_ RTR  --- 13 tcp 1040 [0 0 0 0] ------- [0:0 2:0 32 0] [7 0] 0 0
s 0.247442596 _0_ AGT  --- 14 tcp 1040 [0 0 0 0] ------- [0:0 2:0 32 0] [8 0] 0 0
r 0.247442596 _0_ RTR  --- 14 tcp 1040 [0 0 0 0] ------- [0:0 2:0 32 0] [8 0] 0 0
s 0.247442596 _0_ RTR  --- 13 tcp 1040 [0 0 0 0] ------- [0:0 2:0 30 1] [7 0] 0 0
s 0.247442596 _0_ RTR  --- 14 tcp 1040 [0 0 0 0] ------- [0:0 2:0 30 1] [8 0] 0 0
r 0.247732067 _1_ MAC  --- 0 ACK 38 [0 1 0 0] 
s 0.247962067 _1_ MAC  --- 0 RTS 44 [24ce 2 1 0] 
r 0.248314539 _2_ MAC  --- 0 RTS 44 [24ce 2 1 0] 
s 0.248324539 _2_ MAC  --- 0 CTS 38 [2394 1 0 0] 
r 0.248629010 _1_ MAC  --- 0 CTS 38 [2394 1 0 0] 
s 0.248639010 _1_ MAC  --- 10 tcp 1098 [13a 2 1 800] ------- [0:0 2:0 29 2] [6 0] 1 0
r 0.257423482 _2_ MAC  --- 10 tcp 1040 [13a 2 1 800] ------- [0:0 2:0 29 2] [6 0] 2 0
s 0.257433482 _2_ MAC  --- 0 ACK 38 [0 1 0 0] 
r 0.257448482 _2_ AGT  --- 10 tcp 1040 [13a 2 1 800] ------- [0:0 2:0 29 2] [6 0] 2 0
s 0.257448482 _2_ AGT  --- 15 ack 40 [0 0 0 0] ------- [2:0 0:0 32 0] [6 0] 0 0
r 0.257448482 _2_ RTR  --- 15 ack 40 [0 0 0 0] ------- [2:0 0:0 32 0] [6 0] 0 0
s 0.257448482 _2_ RTR  --- 15 ack 40 [0 0 0 0] ------- [2:0 0:0 30 1] [6 0] 0 0
r 0.257737953 _1_ MAC  --- 0 ACK 38 [0 1 0 0] 
s 0.257867482 _2_ MAC  --- 0 RTS 44 [58e 1 2 0] 
r 0.258219953 _1_ MAC  --- 0 RTS 44 [58e 1 2 0] 
s 0.258229953 _1_ MAC  --- 0 CTS 38 [454 2 0 0] 
r 0.258534424 _2_ MAC  --- 0 CTS 38 [454 2 0 0] 
s 0.258544424 _2_ MAC  --- 15 ack 98 [13a 1 2 800] ------- [2:0 0:0 30 1] [6 0] 0 0
r 0.259328896 _1_ MAC  --- 15 ack 40 [13a 1 2 800] ------- [2:0 0:0 30 1] [6 0] 1 0
s 0.259338896 _1_ MAC  --- 0 ACK 38 [0 2 0 0] 
r 0.259353896 _1_ RTR  --- 15 ack 40 [13a 1 2 800] ------- [2:0 0:0 30 1] [6 0] 1 0
f 0.259353896 _1_ RTR  --- 15 ack 40 [13a 1 2 800] ------- [2:0 0:0 29 0] [6 0] 1 0
r 0.259643367 _2_ MAC  --- 0 ACK 38 [0 2 0 0] 
s 0.259843367 _0_ MAC  --- 0 RTS 44 [24ce 1 0 0] 
r 0.260195839 _1_ MAC  --- 0 RTS 44 [24ce 1 0 0] 
s 0.260205839 _1_ MAC  --- 0 CTS 38 [2394 0 0 0] 
r 0.260510310 _0_ MAC  --- 0 CTS 38 [2394 0 0 0] 
s 0.260520310 _0_ MAC  --- 13 tcp 1098 [13a 1 0 800] ------- [0:0 2:0 30 1] [7 0] 0 0
r 0.269304781 _1_ MAC  --- 13 tcp 1040 [13a 1 0 800] ------- [0:0 2:0 30 1] [7 0] 1 0
s 0.269314781 _1_ MAC  --- 0 ACK 38 [0 0 0 0] 
r 0.269329781 _1_ RTR  --- 13 tcp 1040 [13a 1 0 800] ------- [0:0 2:0 30 1] [7 0] 1 0
f 0.269329781 _1_ RTR  --- 13 tcp 1040 [13a 1 0 800] ------- [0:0 2:0 29 2] [7 0] 1 0
r 0.269619253 _0_ MAC  --- 0 ACK 38 [0 0 0 0] 
s 0.269669253 _0_ MAC  --- 0 RTS 44 [24ce 1 0 0] 
r 0.270021724 _1_ MAC  --- 0 RTS 44 [24ce 1 0 0] 
s 0.270031724 _1_ MAC  --- 0 CTS 38 [2394 0 0 0] 
r 0.270336196 _0_ MAC  --- 0 CTS 38 [2394 0 0 0] 
s 0.270346196 _0_ MAC  --- 14 tcp 1098 [13a 1 0 800] ------- [0:0 2:0 30 1] [8 0] 0 0
r 0.279130667 _1_ MAC  --- 14 tcp 1040 [13a 1 0 800] ------- [0:0 2:0 30 1] [8 0] 1 0
s 0.279140667 _1_ MAC  --- 0 ACK 38 [0 0 0 0] 
r 0.279155667 _1_ RTR  --- 14 tcp 1040 [13a 1 0 800] ------- [0:0 2:0 30 1] [8 0] 1 0
f 0.279155667 _1_ RTR  --- 14 tcp 1040 [13a 1 0 800] ------- [0:0 2:0 29 2] [8 0] 1 0
r 0.279445138 _0_ MAC  --- 0 ACK 38 [0 0 0 0] 
s 0.279554667 _1_ MAC  --- 0 RTS 44 [58e 0 1 0] 
r 0.279907138 _0_ MAC  --- 0 RTS 44 [58e 0 1 0] 
s 0.279917138 _0_ MAC  --- 0 CTS 38 [454 1 0 0] 
r 0.280221610 _1_ MAC  --- 0 CTS 38 [454 1 0 0] 
s 0.280231610 _1_ MAC  --- 11 ack 98 [13a 0 1 800] ------- [2:0 0:0 29 0] [4 0] 1 0
r 0.281016081 _0_ MAC  --- 11 ack 40 [13a 0 1 800] ------- [2:0 0:0 29 0] [4 0] 2 0
s 0.281026081 _0_ MAC  --- 0 ACK 38 [0 1 0 0] 
r 0.281041081 _0_ AGT  --- 11 ack 40 [13a 0 1 800] ------- [2:0 0:0 29 0] [4 0] 2 0
s 0.281041081 _0_ AGT  --- 16 tcp 1040 [0 0 0 0] ------- [0:0 2:0 32 0] [9 0] 0 0
r 0.281041081 _0_ RTR  --- 16 tcp 1040 [0 0 0 0] ------- [0:0 2:0 32 0] [9 0] 0 0
s 0.281041081 _0_ AGT  --- 17 tcp 1040 [0 0 0 0] ------- [0:0 2:0 32 0] [10 0] 0 0
r 0.281041081 _0_ RTR  --- 17 tcp 1040 [0 0 0 0] ------- [0:0 2:0 32 0] [10 0] 0 0
s 0.281041081 _0_ RTR  --- 16 tcp 1040 [0 0 0 0] ------- [0:0 2:0 30 1] [9 0] 0 0
s 0.281041081 _0_ RTR  --- 17 tcp 1040 [0 0 0 0] ------- [0:0 2:0 30 1] [10 0] 0 0
r 0.281330553 _1_ MAC  --- 0 ACK 38 [0 1 0 0] 
s 0.281540081 _0_ MAC  --- 0 RTS 44 [24ce 1 0 0] 
r 0.281892553 _1_ MAC  --- 0 RTS 44 [24ce 1 0 0] 
s 0.281902553 _1_ MAC  --- 0 CTS 38 [2394 0 0 0] 
r 0.282207024 _0_ MAC  --- 0 CTS 38 [2394 0 0 0] 
s 0.282217024 _0_ MAC  --- 16 tcp 1098 [13a 1 0 800] ------- [0:0 2:0 30 1] [9 0] 0 0
r 0.291001495 _1_ MAC  --- 16 tcp 1040 [13a 1 0 800] ------- [0:0 2:0 30 1] [9 0] 1 0
s 0.291011495 _1_ MAC  --- 0 ACK 38 [0 0 0 0] 
r 0.291026495 _1_ RTR  --- 16 tcp 1040 [13a 1 0 800] ------- [0:0 2:0 30 1] [9 0] 1 0
f 0.291026495 _1_ RTR  --- 16 tcp 1040 [13a 1 0 800] ------- [0:0 2:0 29 2] [9 0] 1 0
r 0.291315967 _0_ MAC  --- 0 ACK 38 [0 0 0 0] 
s 0.291525967 _0_ MAC  --- 0 RTS 44 [24ce 1 0 0] 
r 0.291878438 _1_ MAC  --- 0 RTS 44 [24ce 1 0 0] 
s 0.291888438 _1_ MAC  --- 0 CTS 38 [2394 0 0 0] 
r 0.292192910 _0_ MAC  --- 0 CTS 38 [2394 0 0 0] 
s 0.292202910 _0_ MAC  --- 17 tcp 1098 [13a 1 0 800] ------- [0:0 2:0 30 1] [10 0] 0 0
r 0.300987381 _1_ MAC  --- 17 tcp 1040 [13a 1 0 800] ------- [0:0 2:0 30 1] [10 0] 1 0
s 0.300997381 _1_ MAC  --- 0 ACK 38 [0 0 0 0] 
r 0.301012381 _1_ RTR  --- 17 tcp 1040 [13a 1 0 800] ------- [0:0 2:0 30 1] [10 0] 1 0
f 0.301012381 _1_ RTR  --- 17 tcp 1040 [13a 1 0 800] ------- [0:0 2:0 29 2] [10 0] 1 0
r 0.301301852 _0_ MAC  --- 0 ACK 38 [0 0 0 0] 
s 0.301371381 _1_ MAC  --- 0 RTS 44 [58e 0 1 0] 
r 0.301723852 _0_ MAC  --- 0 RTS 44 [58e 0 1 0] 
s 0.301733852 _0_ MAC  --- 0 CTS 38 [454 1 0 0] 
r 0.302038324 _1_ MAC  --- 0 CTS 38 [454 1 0 0] 
s 0.302048324 _1_ MAC  --- 12 ack 98 [13a 0 1 800] ------- [2:0 0:0 29 0] [5 0] 1 0
r 0.302832795 _0_ MAC  --- 12 ack 40 [13a 0 1 800] ------- [2:0 0:0 29 0] [5 0] 2 0
s 0.302842795 _0_ MAC  --- 0 ACK 38 [0 1 0 0] 
r 0.302857795 _0_ AGT  --- 12 ack 40 [13a 0 1 800] ------- [2:0 0:0 29 0] [5 0] 2 0
s 0.302857795 _0_ AGT  --- 18 tcp 1040 [0 0 0 0] ------- [0:0 2:0 32 0] [11 0] 0 0
r 0.302857795 _0_ RTR  --- 18 tcp 1040 [0 0 0 0] ------- [0:0 2:0 32 0] [11 0] 0 0
s 0.302857795 _0_ AGT  --- 19 tcp 1040 [0 0 0 0] ------- [0:0 2:0 32 0] [12 0] 0 0
r 0.302857795 _0_ RTR  --- 19 tcp 1040 [0 0 0 0] ------- [0:0 2:0 32 0] [12 0] 0 0
s 0.302857795 _0_ RTR  --- 18 tcp 1040 [0 0 0 0] ------- [0:0 2:0 30 1] [11 0] 0 0
s 0.302857795 _0_ RTR  --- 19 tcp 1040 [0 0 0 0] ------- [0:0 2:0 30 1] [12 0] 0 0
r 0.303147267 _1_ MAC  --- 0 ACK 38 [0 1 0 0] 
s 0.303277267 _1_ MAC  --- 0 RTS 44 [58e 0 1 0] 
r 0.303629738 _0_ MAC  --- 0 RTS 44 [58e 0 1 0] 
s 0.303639738 _0_ MAC  --- 0 CTS 38 [454 1 0 0] 
r 0.303944209 _1_ MAC  --- 0 CTS 38 [454 1 0 0] 
s 0.303954209 _1_ MAC  --- 15 ack 98 [13a 0 1 800] ------- [2:0 0:0 29 0] [6 0] 1 0
r 0.304738681 _0_ MAC  --- 15 ack 40 [13a 0 1 800] ------- [2:0 0:0 29 0] [6 0] 2 0
s 0.304748681 _0_ MAC  --- 0 ACK 38 [0 1 0 0] 
r 0.304763681 _0_ AGT  --- 15 ack 40 [13a 0 1 800] ------- [2:0 0:0 29 0] [6 0] 2 0
s 0.304763681 _0_ AGT  --- 20 tcp 1040 [0 0 0 0] ------- [0:0 2:0 32 0] [13 0] 0 0
r 0.304763681 _0_ RTR  --- 20 tcp 1040 [0 0 0 0] ------- [0:0 2:0 32 0] [13 0] 0 0
s 0.304763681 _0_ AGT  --- 21 tcp 1040 [0 0 0 0] ------- [0:0 2:0 32 0] [14 0] 0 0
r 0.304763681 _0_ RTR  --- 21 tcp 1040 [0 0 0 0] ------- [0:0 2:0 32 0] [14 0] 0 0
s 0.304763681 _0_ RTR  --- 20 tcp 1040 [0 0 0 0] ------- [0:0 2:0 30 1] [13 0] 0 0
s 0.304763681 _0_ RTR  --- 21 tcp 1040 [0 0 0 0] ------- [0:0 2:0 30 1] [14 0] 0 0
r 0.305053152 _1_ MAC  --- 0 ACK 38 [0 1 0 0] 
s 0.305222681 _0_ MAC  --- 0 RTS 44 [24ce 1 0 0] 
r 0.305575152 _1_ MAC  --- 0 RTS 44 [24ce 1 0 0] 
s 0.305585152 _1_ MAC  --- 0 CTS 38 [2394 0 0 0] 
r 0.305889624 _0_ MAC  --- 0 CTS 38 [2394 0 0 0] 
s 0.305899624 _0_ MAC  --- 18 tcp 1098 [13a 1 0 800] ------- [0:0 2:0 30 1] [11 0] 0 0
r 0.314684095 _1_ MAC  --- 18 tcp 1040 [13a 1 0 800] ------- [0:0 2:0 30 1] [11 0] 1 0
s 0.314694095 _1_ MAC  --- 0 ACK 38 [0 0 0 0] 
r 0.314709095 _1_ RTR  --- 18 tcp 1040 [13a 1 0 800] ------- [0:0 2:0 30 1] [11 0] 1 0
f 0.314709095 _1_ RTR  --- 18 tcp 1040 [13a 1 0 800] ------- [0:0 2:0 29 2] [11 0] 1 0
r 0.314998566 _0_ MAC  --- 0 ACK 38 [0 0 0 0] 
s 0.315048566 _0_ MAC  --- 0 RTS 44 [24ce 1 0 0] 
r 0.315401038 _1_ MAC  --- 0 RTS 44 [24ce 1 0 0] 
s 0.315411038 _1_ MAC  --- 0 CTS 38 [2394 0 0 0] 
r 0.315715509 _0_ MAC  --- 0 CTS 38 [2394 0 0 0] 
s 0.315725509 _0_ MAC  --- 19 tcp 1098 [13a 1 0 800] ------- [0:0 2:0 30 1] [12 0] 0 0
r 0.324509981 _1_ MAC  --- 19 tcp 1040 [13a 1 0 800] ------- [0:0 2:0 30 1] [12 0] 1 0
s 0.324519981 _1_ MAC  --- 0 ACK 38 [0 0 0 0] 
r 0.324534981 _1_ RTR  --- 19 tcp 1040 [13a 1 0 800] ------- [0:0 2:0 30 1] [12 0] 1 0
f 0.324534981 _1_ RTR  --- 19 tcp 1040 [13a 1 0 800] ------- [0:0 2:0 29 2] [12 0] 1 0
r 0.324824452 _0_ MAC  --- 0 ACK 38 [0 0 0 0] 
s 0.325053981 _1_ MAC  --- 0 RTS 44 [24ce 2 1 0] 
r 0.325406452 _2_ MAC  --- 0 RTS 44 [24ce 2 1 0] 
s 0.325416452 _2_ MAC  --- 0 CTS 38 [2394 1 0 0] 
r 0.325720924 _1_ MAC  --- 0 CTS 38 [2394 1 0 0] 
s 0.325730924 _1_ MAC  --- 13 tcp 1098 [13a 2 1 800] ------- [0:0 2:0 29 2] [7 0] 1 0