n -t * -s 0  -x 110 -y 110 -Z 0 -z 40  -v circle -c black
n -t * -s 1  -x 210 -y 210 -Z 0 -z 40  -v circle -c black
n -t * -s 2  -x 310 -y 310 -Z 0 -z 40  -v circle -c black
V -t * -v 1.0a5 -a 0
W -t * -x 500 -y 500
A -t * -n 1 -p 0 -o 0x7fffffff -c 30 -a 1
A -t * -h 1 -m 1073741823 -s 0
n -t 0.100000 -s 0 -x 110.000000 -y 110.000000 -U 7.071068 -V 7.071068 -T 5.656854
n -t 0.100000 -s 1 -x 210.000000 -y 210.000000 -U -7.071068 -V -7.071068 -T 5.656854
n -t 0.100000 -s 2 -x 310.000000 -y 310.000000 -U -7.071068 -V -7.071068 -T 16.970563
+ -t 0.100000000 -s 0 -d -1 -p tcp -e 40 -c 2 -a 0 -i 0 -k AGT 
- -t 0.100000000 -s 0 -d -1 -p tcp -e 40 -c 2 -a 0 -i 0 -k AGT
h -t 0.100000000 -s 0 -d -1 -p tcp -e 40 -c 2 -a 0 -i 0 -k AGT
+ -t 0.100000000 -s 0 -d -1 -p AODV -e 48 -c 2 -a 0 -i 0 -k RTR 
- -t 0.100000000 -s 0 -d -1 -p AODV -e 48 -c 2 -a 0 -i 0 -k RTR
h -t 0.100000000 -s 0 -d -1 -p AODV -e 48 -c 2 -a 0 -i 0 -k RTR
+ -t 0.100115000 -s 0 -d -1 -p AODV -e 106 -c 2 -a 0 -i 0 -k MAC 
- -t 0.100115000 -s 0 -d -1 -p AODV -e 106 -c 2 -a 0 -i 0 -k MAC
h -t 0.100115000 -s 0 -d -1 -p AODV -e 106 -c 2 -a 0 -i 0 -k MAC
r -t 0.100963471 -s 1 -d -1 -p AODV -e 48 -c 2 -a 0 -i 0 -k MAC
r -t 0.100988471 -s 1 -d -1 -p AODV -e 48 -c 2 -a 0 -i 0 -k RTR
+ -t 0.101869698 -s 1 -d -1 -p AODV -e 48 -c 2 -a 0 -i 0 -k RTR 
- -t 0.101869698 -s 1 -d -1 -p AODV -e 48 -c 2 -a 0 -i 0 -k RTR
h -t 0.101869698 -s 1 -d -1 -p AODV -e 48 -c 2 -a 0 -i 0 -k RTR
+ -t 0.102264698 -s 1 -d -1 -p AODV -e 106 -c 2 -a 0 -i 0 -k MAC 
- -t 0.102264698 -s 1 -d -1 -p AODV -e 106 -c 2 -a 0 -i 0 -k MAC
h -t 0.102264698 -s 1 -d -1 -p AODV -e 106 -c 2 -a 0 -i 0 -k MAC
r -t 0.103113169 -s 0 -d -1 -p AODV -e 48 -c 2 -a 0 -i 0 -k MAC
r -t 0.103113170 -s 2 -d -1 -p AODV -e 48 -c 2 -a 0 -i 0 -k MAC
r -t 0.103138169 -s 0 -d -1 -p AODV -e 48 -c 2 -a 0 -i 0 -k RTR
r -t 0.103138170 -s 2 -d -1 -p AODV -e 48 -c 2 -a 0 -i 0 -k RTR
+ -t 0.103138170 -s 2 -d 1 -p AODV -e 44 -c 2 -a 0 -i 0 -k RTR 
- -t 0.103138170 -s 2 -d 1 -p AODV -e 44 -c 2 -a 0 -i 0 -k RTR
h -t 0.103138170 -s 2 -d 1 -p AODV -e 44 -c 2 -a 0 -i 0 -k RTR
+ -t 0.103353170 -s 2 -d -1 -p ARP -e 86 -c 2 -a 0 -i 0 -k MAC 
- -t 0.103353170 -s 2 -d -1 -p ARP -e 86 -c 2 -a 0 -i 0 -k MAC
h -t 0.103353170 -s 2 -d -1 -p ARP -e 86 -c 2 -a 0 -i 0 -k MAC
r -t 0.104041641 -s 1 -d -1 -p ARP -e 28 -c 2 -a 0 -i 0 -k MAC
+ -t 0.104336641 -s 1 -d -1 -p RTS -e 44 -c 2 -a 0 -i 0 -k MAC 
- -t 0.104336641 -s 1 -d -1 -p RTS -e 44 -c 2 -a 0 -i 0 -k MAC
h -t 0.104336641 -s 1 -d -1 -p RTS -e 44 -c 2 -a 0 -i 0 -k MAC
r -t 0.104689112 -s 2 -d -1 -p RTS -e 44 -c 2 -a 0 -i 0 -k MAC
+ -t 0.104699112 -s 2 -d -1 -p CTS -e 38 -c 2 -a 0 -i 0 -k MAC 
- -t 0.104699112 -s 2 -d -1 -p CTS -e 38 -c 2 -a 0 -i 0 -k MAC
h -t 0.104699112 -s 2 -d -1 -p CTS -e 38 -c 2 -a 0 -i 0 -k MAC
r -t 0.105003584 -s 1 -d -1 -p CTS -e 38 -c 2 -a 0 -i 0 -k MAC
+ -t 0.105013584 -s 1 -d -1 -p ARP -e 86 -c 2 -a 0 -i 0 -k MAC 
- -t 0.105013584 -s 1 -d -1 -p ARP -e 86 -c 2 -a 0 -i 0 -k MAC
h -t 0.105013584 -s 1 -d -1 -p ARP -e 86 -c 2 -a 0 -i 0 -k MAC
r -t 0.105702055 -s 2 -d -1 -p ARP -e 28 -c 2 -a 0 -i 0 -k MAC
+ -t 0.105712055 -s 2 -d -1 -p ACK -e 38 -c 2 -a 0 -i 0 -k MAC 
- -t 0.105712055 -s 2 -d -1 -p ACK -e 38 -c 2 -a 0 -i 0 -k MAC
h -t 0.105712055 -s 2 -d -1 -p ACK -e 38 -c 2 -a 0 -i 0 -k MAC
r -t 0.106016527 -s 1 -d -1 -p ACK -e 38 -c 2 -a 0 -i 0 -k MAC
+ -t 0.106426055 -s 2 -d -1 -p RTS -e 44 -c 2 -a 0 -i 0 -k MAC 
- -t 0.106426055 -s 2 -d -1 -p RTS -e 44 -c 2 -a 0 -i 0 -k MAC
h -t 0.106426055 -s 2 -d -1 -p RTS -e 44 -c 2 -a 0 -i 0 -k MAC
r -t 0.106778527 -s 1 -d -1 -p RTS -e 44 -c 2 -a 0 -i 0 -k MAC
+ -t 0.106788527 -s 1 -d -1 -p CTS -e 38 -c 2 -a 0 -i 0 -k MAC 
- -t 0.106788527 -s 1 -d -1 -p CTS -e 38 -c 2 -a 0 -i 0 -k MAC
h -t 0.106788527 -s 1 -d -1 -p CTS -e 38 -c 2 -a 0 -i 0 -k MAC
r -t 0.107092998 -s 2 -d -1 -p CTS -e 38 -c 2 -a 0 -i 0 -k MAC
+ -t 0.107102998 -s 2 -d 1 -p AODV -e 102 -c 2 -a 0 -i 0 -k MAC 
- -t 0.107102998 -s 2 -d 1 -p AODV -e 102 -c 2 -a 0 -i 0 -k MAC
h -t 0.107102998 -s 2 -d 1 -p AODV -e 102 -c 2 -a 0 -i 0 -k MAC
r -t 0.107919469 -s 1 -d 1 -p AODV -e 44 -c 2 -a 0 -i 0 -k MAC
+ -t 0.107929469 -s 1 -d -1 -p ACK -e 38 -c 2 -a 0 -i 0 -k MAC 
- -t 0.107929469 -s 1 -d -1 -p ACK -e 38 -c 2 -a 0 -i 0 -k MAC
h -t 0.107929469 -s 1 -d -1 -p ACK -e 38 -c 2 -a 0 -i 0 -k MAC
+ -t 0.107944469 -s 1 -d 0 -p AODV -e 44 -c 2 -a 0 -i 0 -k RTR 
- -t 0.107944469 -s 1 -d 0 -p AODV -e 44 -c 2 -a 0 -i 0 -k RTR
h -t 0.107944469 -s 1 -d 0 -p AODV -e 44 -c 2 -a 0 -i 0 -k RTR
r -t 0.108233941 -s 2 -d -1 -p ACK -e 38 -c 2 -a 0 -i 0 -k MAC
+ -t 0.108523469 -s 1 -d -1 -p ARP -e 86 -c 2 -a 0 -i 0 -k MAC 
- -t 0.108523469 -s 1 -d -1 -p ARP -e 86 -c 2 -a 0 -i 0 -k MAC
h -t 0.108523469 -s 1 -d -1 -p ARP -e 86 -c 2 -a 0 -i 0 -k MAC
r -t 0.109211940 -s 0 -d -1 -p ARP -e 28 -c 2 -a 0 -i 0 -k MAC
r -t 0.109211941 -s 2 -d -1 -p ARP -e 28 -c 2 -a 0 -i 0 -k MAC
+ -t 0.109426940 -s 0 -d -1 -p RTS -e 44 -c 2 -a 0 -i 0 -k MAC 
- -t 0.109426940 -s 0 -d -1 -p RTS -e 44 -c 2 -a 0 -i 0 -k MAC
h -t 0.109426940 -s 0 -d -1 -p RTS -e 44 -c 2 -a 0 -i 0 -k MAC
r -t 0.109779411 -s 1 -d -1 -p RTS -e 44 -c 2 -a 0 -i 0 -k MAC
+ -t 0.109789411 -s 1 -d -1 -p CTS -e 38 -c 2 -a 0 -i 0 -k MAC 
- -t 0.109789411 -s 1 -d -1 -p CTS -e 38 -c 2 -a 0 -i 0 -k MAC
h -t 0.109789411 -s 1 -d -1 -p CTS -e 38 -c 2 -a 0 -i 0 -k MAC
r -t 0.110093882 -s 0 -d -1 -p CTS -e 38 -c 2 -a 0 -i 0 -k MAC
+ -t 0.110103882 -s 0 -d -1 -p ARP -e 86 -c 2 -a 0 -i 0 -k MAC 
- -t 0.110103882 -s 0 -d -1 -p ARP -e 86 -c 2 -a 0 -i 0 -k MAC
h -t 0.110103882 -s 0 -d -1 -p ARP -e 86 -c 2 -a 0 -i 0 -k MAC
r -t 0.110792352 -s 1 -d -1 -p ARP -e 28 -c 2 -a 0 -i 0 -k MAC
+ -t 0.110802352 -s 1 -d -1 -p ACK -e 38 -c 2 -a 0 -i 0 -k MAC 
- -t 0.110802352 -s 1 -d -1 -p ACK -e 38 -c 2 -a 0 -i 0 -k MAC
h -t 0.110802352 -s 1 -d -1 -p ACK -e 38 -c 2 -a 0 -i 0 -k MAC
r -t 0.111106823 -s 0 -d -1 -p ACK -e 38 -c 2 -a 0 -i 0 -k MAC
+ -t 0.111536352 -s 1 -d -1 -p RTS -e 44 -c 2 -a 0 -i 0 -k MAC 
- -t 0.111536352 -s 1 -d -1 -p RTS -e 44 -c 2 -a 0 -i 0 -k MAC
h -t 0.111536352 -s 1 -d -1 -p RTS -e 44 -c 2 -a 0 -i 0 -k MAC
r -t 0.111888823 -s 0 -d -1 -p RTS -e 44 -c 2 -a 0 -i 0 -k MAC
+ -t 0.111898823 -s 0 -d -1 -p CTS -e 38 -c 2 -a 0 -i 0 -k MAC 
- -t 0.111898823 -s 0 -d -1 -p CTS -e 38 -c 2 -a 0 -i 0 -k MAC
h -t 0.111898823 -s 0 -d -1 -p CTS -e 38 -c 2 -a 0 -i 0 -k MAC
r -t 0.112203294 -s 1 -d -1 -p CTS -e 38 -c 2 -a 0 -i 0 -k MAC
+ -t 0.112213294 -s 1 -d 0 -p AODV -e 102 -c 2 -a 0 -i 0 -k MAC 
- -t 0.112213294 -s 1 -d 0 -p AODV -e 102 -c 2 -a 0 -i 0 -k MAC
h -t 0.112213294 -s 1 -d 0 -p AODV -e 102 -c 2 -a 0 -i 0 -k MAC
r -t 0.113029764 -s 0 -d 0 -p AODV -e 44 -c 2 -a 0 -i 0 -k MAC
+ -t 0.113039764 -s 0 -d -1 -p ACK -e 38 -c 2 -a 0 -i 0 -k MAC 
- -t 0.113039764 -s 0 -d -1 -p ACK -e 38 -c 2 -a 0 -i 0 -k MAC
h -t 0.113039764 -s 0 -d -1 -p ACK -e 38 -c 2 -a 0 -i 0 -k MAC
+ -t 0.113054764 -s 0 -d 1 -p tcp -e 40 -c 2 -a 0 -i 0 -k RTR 
- -t 0.113054764 -s 0 -d 1 -p tcp -e 40 -c 2 -a 0 -i 0 -k RTR
h -t 0.113054764 -s 0 -d 1 -p tcp -e 40 -c 2 -a 0 -i 0 -k RTR
r -t 0.113344235 -s 1 -d -1 -p ACK -e 38 -c 2 -a 0 -i 0 -k MAC
+ -t 0.113633764 -s 0 -d -1 -p RTS -e 44 -c 2 -a 0 -i 0 -k MAC 
- -t 0.113633764 -s 0 -d -1 -p RTS -e 44 -c 2 -a 0 -i 0 -k MAC
h -t 0.113633764 -s 0 -d -1 -p RTS -e 44 -c 2 -a 0 -i 0 -k MAC
r -t 0.113986235 -s 1 -d -1 -p RTS -e 44 -c 2 -a 0 -i 0 -k MAC
+ -t 0.113996235 -s 1 -d -1 -p CTS -e 38 -c 2 -a 0 -i 0 -k MAC 
- -t 0.113996235 -s 1 -d -1 -p CTS -e 38 -c 2 -a 0 -i 0 -k MAC
h -t 0.113996235 -s 1 -d -1 -p CTS -e 38 -c 2 -a 0 -i 0 -k MAC
r -t 0.114300705 -s 0 -d -1 -p CTS -e 38 -c 2 -a 0 -i 0 -k MAC
+ -t 0.114310705 -s 0 -d 1 -p tcp -e 98 -c 2 -a 0 -i 0 -k MAC 
- -t 0.114310705 -s 0 -d 1 -p tcp -e 98 -c 2 -a 0 -i 0 -k MAC
h -t 0.114310705 -s 0 -d 1 -p tcp -e 98 -c 2 -a 0 -i 0 -k MAC
r -t 0.115095176 -s 1 -d 1 -p tcp -e 40 -c 2 -a 0 -i 0 -k MAC
+ -t 0.115105176 -s 1 -d -1 -p ACK -e 38 -c 2 -a 0 -i 0 -k MAC 
- -t 0.115105176 -s 1 -d -1 -p ACK -e 38 -c 2 -a 0 -i 0 -k MAC
h -t 0.115105176 -s 1 -d -1 -p ACK -e 38 -c 2 -a 0 -i 0 -k MAC
+ -t 0.115120176 -s 1 -d 2 -p tcp -e 40 -c 2 -a 0 -i 0 -k RTR 
- -t 0.115120176 -s 1 -d 2 -p tcp -e 40 -c 2 -a 0 -i 0 -k RTR
h -t 0.115120176 -s 1 -d 2 -p tcp -e 40 -c 2 -a 0 -i 0 -k RTR
r -t 0.115409646 -s 0 -d -1 -p ACK -e 38 -c 2 -a 0 -i 0 -k MAC
+ -t 0.115939176 -s 1 -d -1 -p RTS -e 44 -c 2 -a 0 -i 0 -k MAC 
- -t 0.115939176 -s 1 -d -1 -p RTS -e 44 -c 2 -a 0 -i 0 -k MAC
h -t 0.115939176 -s 1 -d -1 -p RTS -e 44 -c 2 -a 0 -i 0 -k MAC
r -t 0.116291647 -s 2 -d -1 -p RTS -e 44 -c 2 -a 0 -i 0 -k MAC
+ -t 0.116301647 -s 2 -d -1 -p CTS -e 38 -c 2 -a 0 -i 0 -k MAC 
- -t 0.116301647 -s 2 -d -1 -p CTS -e 38 -c 2 -a 0 -i 0 -k MAC
h -t 0.116301647 -s 2 -d -1 -p CTS -e 38 -c 2 -a 0 -i 0 -k MAC
r -t 0.116606119 -s 1 -d -1 -p CTS -e 38 -c 2 -a 0 -i 0 -k MAC
+ -t 0.116616119 -s 1 -d 2 -p tcp -e 98 -c 2 -a 0 -i 0 -k MAC 
- -t 0.116616119 -s 1 -d 2 -p tcp -e 98 -c 2 -a 0 -i 0 -k MAC
h -t 0.116616119 -s 1 -d 2 -p tcp -e 98 -c 2 -a 0 -i 0 -k MAC
r -t 0.117400590 -s 2 -d 2 -p tcp -e 40 -c 2 -a 0 -i 0 -k MAC
+ -t 0.117410590 -s 2 -d -1 -p ACK -e 38 -c 2 -a 0 -i 0 -k MAC 
- -t 0.117410590 -s 2 -d -1 -p ACK -e 38 -c 2 -a 0 -i 0 -k MAC
h -t 0.117410590 -s 2 -d -1 -p ACK -e 38 -c 2 -a 0 -i 0 -k MAC
r -t 0.117425590 -s 2 -d 2 -p tcp -e 40 -c 2 -a 0 -i 0 -k AGT
+ -t 0.117425590 -s 2 -d -1 -p ack -e 40 -c 2 -a 0 -i 1 -k AGT 
- -t 0.117425590 -s 2 -d -1 -p ack -e 40 -c 2 -a 0 -i 1 -k AGT
h -t 0.117425590 -s 2 -d -1 -p ack -e 40 -c 2 -a 0 -i 1 -k AGT
+ -t 0.117425590 -s 2 -d 1 -p ack -e 40 -c 2 -a 0 -i 1 -k RTR 
- -t 0.117425590 -s 2 -d 1 -p ack -e 40 -c 2 -a 0 -i 1 -k RTR
h -t 0.117425590 -s 2 -d 1 -p ack -e 40 -c 2 -a 0 -i 1 -k RTR
r -t 0.117715061 -s 1 -d -1 -p ACK -e 38 -c 2 -a 0 -i 0 -k MAC
+ -t 0.118084590 -s 2 -d -1 -p RTS -e 44 -c 2 -a 0 -i 0 -k MAC 
- -t 0.118084590 -s 2 -d -1 -p RTS -e 44 -c 2 -a 0 -i 0 -k MAC
h -t 0.118084590 -s 2 -d -1 -p RTS -e 44 -c 2 -a 0 -i 0 -k MAC
r -t 0.118437061 -s 1 -d -1 -p RTS -e 44 -c 2 -a 0 -i 0 -k MAC
+ -t 0.118447061 -s 1 -d -1 -p CTS -e 38 -c 2 -a 0 -i 0 -k MAC 
- -t 0.118447061 -s 1 -d -1 -p CTS -e 38 -c 2 -a 0 -i 0 -k MAC
h -t 0.118447061 -s 1 -d -1 -p CTS -e 38 -c 2 -a 0 -i 0 -k MAC
r -t 0.118751533 -s 2 -d -1 -p CTS -e 38 -c 2 -a 0 -i 0 -k MAC
+ -t 0.118761533 -s 2 -d 1 -p ack -e 98 -c 2 -a 0 -i 1 -k MAC 
- -t 0.118761533 -s 2 -d 1 -p ack -e 98 -c 2 -a 0 -i 1 -k MAC
h -t 0.118761533 -s 2 -d 1 -p ack -e 98 -c 2 -a 0 -i 1 -k MAC
r -t 0.119546004 -s 1 -d 1 -p ack -e 40 -c 2 -a 0 -i 1 -k MAC
+ -t 0.119556004 -s 1 -d -1 -p ACK -e 38 -c 2 -a 0 -i 0 -k MAC 
- -t 0.119556004 -s 1 -d -1 -p ACK -e 38 -c 2 -a 0 -i 0 -k MAC
h -t 0.119556004 -s 1 -d -1 -p ACK -e 38 -c 2 -a 0 -i 0 -k MAC
+ -t 0.119571004 -s 1 -d 0 -p ack -e 40 -c 2 -a 0 -i 1 -k RTR 
- -t 0.119571004 -s 1 -d 0 -p ack -e 40 -c 2 -a 0 -i 1 -k RTR
h -t 0.119571004 -s 1 -d 0 -p ack -e 40 -c 2 -a 0 -i 1 -k RTR
r -t 0.119860476 -s 2 -d -1 -p ACK -e 38 -c 2 -a 0 -i 0 -k MAC
+ -t 0.120130004 -s 1 -d -1 -p RTS -e 44 -c 2 -a 0 -i 0 -k MAC 
- -t 0.120130004 -s 1 -d -1 -p RTS -e 44 -c 2 -a 0 -i 0 -k MAC
h -t 0.120130004 -s 1 -d -1 -p RTS -e 44 -c 2 -a 0 -i 0 -k MAC
r -t 0.120482474 -s 0 -d -1 -p RTS -e 44 -c 2 -a 0 -i 0 -k MAC
+ -t 0.120492474 -s 0 -d -1 -p CTS -e 38 -c 2 -a 0 -i 0 -k MAC 
- -t 0.120492474 -s 0 -d -1 -p CTS -e 38 -c 2 -a 0 -i 0 -k MAC
h -t 0.120492474 -s 0 -d -1 -p CTS -e 38 -c 2 -a 0 -i 0 -k MAC
r -t 0.120796944 -s 1 -d -1 -p CTS -e 38 -c 2 -a 0 -i 0 -k MAC
+ -t 0.120806944 -s 1 -d 0 -p ack -e 98 -c 2 -a 0 -i 1 -k MAC 
- -t 0.120806944 -s 1 -d 0 -p ack -e 98 -c 2 -a 0 -i 1 -k MAC
h -t 0.120806944 -s 1 -d 0 -p ack -e 98 -c 2 -a 0 -i 1 -k MAC
r -t 0.121591414 -s 0 -d 0 -p ack -e 40 -c 2 -a 0 -i 1 -k MAC
+ -t 0.121601414 -s 0 -d -1 -p ACK -e 38 -c 2 -a 0 -i 0 -k MAC 
- -t 0.121601414 -s 0 -d -1 -p ACK -e 38 -c 2 -a 0 -i 0 -k MAC
h -t 0.121601414 -s 0 -d -1 -p ACK -e 38 -c 2 -a 0 -i 0 -k MAC
r -t 0.121616414 -s 0 -d 0 -p ack -e 40 -c 2 -a 0 -i 1 -k AGT
+ -t 0.121616414 -s 0 -d -1 -p tcp -e 1040 -c 2 -a 0 -i 2 -k AGT 
- -t 0.121616414 -s 0 -d -1 -p tcp -e 1040 -c 2 -a 0 -i 2 -k AGT
h -t 0.121616414 -s 0 -d -1 -p tcp -e 1040 -c 2 -a 0 -i 2 -k AGT
+ -t 0.121616414 -s 0 -d -1 -p tcp -e 1040 -c 2 -a 0 -i 3 -k AGT 
- -t 0.121616414 -s 0 -d -1 -p tcp -e 1040 -c 2 -a 0 -i 3 -k AGT
h -t 0.121616414 -s 0 -d -1 -p tcp -e 1040 -c 2 -a 0 -i 3 -k AGT
+ -t 0.121616414 -s 0 -d 1 -p tcp -e 1040 -c 2 -a 0 -i 2 -k RTR 
- -t 0.121616414 -s 0 -d 1 -p tcp -e 1040 -c 2 -a 0 -i 2 -k RTR
h -t 0.121616414 -s 0 -d 1 -p tcp -e 1040 -c 2 -a 0 -i 2 -k RTR
+ -t 0.121616414 -s 0 -d 1 -p tcp -e 1040 -c 2 -a 0 -i 3 -k RTR 
- -t 0.121616414 -s 0 -d 1 -p tcp -e 1040 -c 2 -a 0 -i 3 -k RTR
h -t 0.121616414 -s 0 -d 1 -p tcp -e 1040 -c 2 -a 0 -i 3 -k RTR
r -t 0.121905884 -s 1 -d -1 -p ACK -e 38 -c 2 -a 0 -i 0 -k MAC
+ -t 0.122195414 -s 0 -d -1 -p RTS -e 44 -c 2 -a 0 -i 0 -k MAC 
- -t 0.122195414 -s 0 -d -1 -p RTS -e 44 -c 2 -a 0 -i 0 -k MAC
h -t 0.122195414 -s 0 -d -1 -p RTS -e 44 -c 2 -a 0 -i 0 -k MAC
r -t 0.122547884 -s 1 -d -1 -p RTS -e 44 -c 2 -a 0 -i 0 -k MAC
+ -t 0.122557884 -s 1 -d -1 -p CTS -e 38 -c 2 -a 0 -i 0 -k MAC 
- -t 0.122557884 -s 1 -d -1 -p CTS -e 38 -c 2 -a 0 -i 0 -k MAC
h -t 0.122557884 -s 1 -d -1 -p CTS -e 38 -c 2 -a 0 -i 0 -k MAC
r -t 0.122862354 -s 0 -d -1 -p CTS -e 38 -c 2 -a 0 -i 0 -k MAC
+ -t 0.122872354 -s 0 -d 1 -p tcp -e 1098 -c 2 -a 0 -i 2 -k MAC 
- -t 0.122872354 -s 0 -d 1 -p tcp -e 1098 -c 2 -a 0 -i 2 -k MAC
h -t 0.122872354 -s 0 -d 1 -p tcp -e 1098 -c 2 -a 0 -i 2 -k MAC
r -t 0.131656824 -s 1 -d 1 -p tcp -e 1040 -c 2 -a 0 -i 2 -k MAC
+ -t 0.131666824 -s 1 -d -1 -p ACK -e 38 -c 2 -a 0 -i 0 -k MAC 
- -t 0.131666824 -s 1 -d -1 -p ACK -e 38 -c 2 -a 0 -i 0 -k MAC
h -t 0.131666824 -s 1 -d -1 -p ACK -e 38 -c 2 -a 0 -i 0 -k MAC
+ -t 0.131681824 -s 1 -d 2 -p tcp -e 1040 -c 2 -a 0 -i 2 -k RTR 
- -t 0.131681824 -s 1 -d 2 -p tcp -e 1040 -c 2 -a 0 -i 2 -k RTR
h -t 0.131681824 -s 1 -d 2 -p tcp -e 1040 -c 2 -a 0 -i 2 -k RTR
r -t 0.131971293 -s 0 -d -1 -p ACK -e 38 -c 2 -a 0 -i 0 -k MAC
+ -t 0.132201293 -s 0 -d -1 -p RTS -e 44 -c 2 -a 0 -i 0 -k MAC 
- -t 0.132201293 -s 0 -d -1 -p RTS -e 44 -c 2 -a 0 -i 0 -k MAC
h -t 0.132201293 -s 0 -d -1 -p RTS -e 44 -c 2 -a 0 -i 0 -k MAC
r -t 0.132553762 -s 1 -d -1 -p RTS -e 44 -c 2 -a 0 -i 0 -k MAC
+ -t 0.132563762 -s 1 -d -1 -p CTS -e 38 -c 2 -a 0 -i 0 -k MAC 
- -t 0.132563762 -s 1 -d -1 -p CTS -e 38 -c 2 -a 0 -i 0 -k MAC
h -t 0.132563762 -s 1 -d -1 -p CTS -e 38 -c 2 -a 0 -i 0 -k MAC
r -t 0.132868232 -s 0 -d -1 -p CTS -e 38 -c 2 -a 0 -i 0 -k MAC
+ -t 0.132878232 -s 0 -d 1 -p tcp -e 1098 -c 2 -a 0 -i 3 -k MAC 
- -t 0.132878232 -s 0 -d 1 -p tcp -e 1098 -c 2 -a 0 -i 3 -k MAC
h -t 0.132878232 -s 0 -d 1 -p tcp -e 1098 -c 2 -a 0 -i 3 -k MAC
r -t 0.141662701 -s 1 -d 1 -p tcp -e 1040 -c 2 -a 0 -i 3 -k MAC
+ -t 0.141672701 -s 1 -d -1 -p ACK -e 38 -c 2 -a 0 -i 0 -k MAC 
- -t 0.141672701 -s 1 -d -1 -p ACK -e 38 -c 2 -a 0 -i 0 -k MAC
h -t 0.141672701 -s 1 -d -1 -p ACK -e 38 -c 2 -a 0 -i 0 -k MAC
+ -t 0.141687701 -s 1 -d 2 -p tcp -e 1040 -c 2 -a 0 -i 3 -k RTR 
- -t 0.141687701 -s 1 -d 2 -p tcp -e 1040 -c 2 -a 0 -i 3 -k RTR
h -t 0.141687701 -s 1 -d 2 -p tcp -e 1040 -c 2 -a 0 -i 3 -k RTR
r -t 0.141977170 -s 0 -d -1 -p ACK -e 38 -c 2 -a 0 -i 0 -k MAC
+ -t 0.142066701 -s 1 -d -1 -p RTS -e 44 -c 2 -a 0 -i 0 -k MAC 
- -t 0.142066701 -s 1 -d -1 -p RTS -e 44 -c 2 -a 0 -i 0 -k MAC
h -t 0.142066701 -s 1 -d -1 -p RTS -e 44 -c 2 -a 0 -i 0 -k MAC
r -t 0.142419172 -s 2 -d -1 -p RTS -e 44 -c 2 -a 0 -i 0 -k MAC
+ -t 0.142429172 -s 2 -d -1 -p CTS -e 38 -c 2 -a 0 -i 0 -k MAC 
- -t 0.142429172 -s 2 -d -1 -p CTS -e 38 -c 2 -a 0 -i 0 -k MAC
h -t 0.142429172 -s 2 -d -1 -p CTS -e 38 -c 2 -a 0 -i 0 -k MAC
r -t 0.142733644 -s 1 -d -1 -p CTS -e 38 -c 2 -a 0 -i 0 -k MAC
+ -t 0.142743644 -s 1 -d 2 -p tcp -e 1098 -c 2 -a 0 -i 2 -k MAC 
- -t 0.142743644 -s 1 -d 2 -p tcp -e 1098 -c 2 -a 0 -i 2 -k MAC
h -t 0.142743644 -s 1 -d 2 -p tcp -e 1098 -c 2 -a 0 -i 2 -k MAC
r -t 0.151528115 -s 2 -d 2 -p tcp -e 1040 -c 2 -a 0 -i 2 -k MAC
+ -t 0.151538115 -s 2 -d -1 -p ACK -e 38 -c 2 -a 0 -i 0 -k MAC 
- -t 0.151538115 -s 2 -d -1 -p ACK -e 38 -c 2 -a 0 -i 0 -k MAC
h -t 0.151538115 -s 2 -d -1 -p ACK -e 38 -c 2 -a 0 -i 0 -k MAC
r -t 0.151553115 -s 2 -d 2 -p tcp -e 1040 -c 2 -a 0 -i 2 -k AGT
+ -t 0.151553115 -s 2 -d -1 -p ack -e 40 -c 2 -a 0 -i 4 -k AGT 
- -t 0.151553115 -s 2 -d -1 -p ack -e 40 -c 2 -a 0 -i 4 -k AGT
h -t 0.151553115 -s 2 -d -1 -p ack -e 40 -c 2 -a 0 -i 4 -k AGT
+ -t 0.151553115 -s 2 -d 1 -p ack -e 40 -c 2 -a 0 -i 4 -k RTR 
- -t 0.151553115 -s 2 -d 1 -p ack -e 40 -c 2 -a 0 -i 4 -k RTR
h -t 0.151553115 -s 2 -d 1 -p ack -e 40 -c 2 -a 0 -i 4 -k RTR
r -t 0.151842587 -s 1 -d -1 -p ACK -e 38 -c 2 -a 0 -i 0 -k MAC
+ -t 0.152292115 -s 2 -d -1 -p RTS -e 44 -c 2 -a 0 -i 0 -k MAC 
- -t 0.152292115 -s 2 -d -1 -p RTS -e 44 -c 2 -a 0 -i 0 -k MAC
h -t 0.152292115 -s 2 -d -1 -p RTS -e 44 -c 2 -a 0 -i 0 -k MAC
r -t 0.152644587 -s 1 -d -1 -p RTS -e 44 -c 2 -a 0 -i 0 -k MAC
+ -t 0.152654587 -s 1 -d -1 -p CTS -e 38 -c 2 -a 0 -i 0 -k MAC 
- -t 0.152654587 -s 1 -d -1 -p CTS -e 38 -c 2 -a 0 -i 0 -k MAC
h -t 0.152654587 -s 1 -d -1 -p CTS -e 38 -c 2 -a 0 -i 0 -k MAC
r -t 0.152959058 -s 2 -d -1 -p CTS -e 38 -c 2 -a 0 -i 0 -k MAC
+ -t 0.152969058 -s 2 -d 1 -p ack -e 98 -c 2 -a 0 -i 4 -k MAC 
- -t 0.152969058 -s 2 -d 1 -p ack -e 98 -c 2 -a 0 -i 4 -k MAC
h -t 0.152969058 -s 2 -d 1 -p ack -e 98 -c 2 -a 0 -i 4 -k MAC
r -t 0.153753529 -s 1 -d 1 -p ack -e 40 -c 2 -a 0 -i 4 -k MAC
+ -t 0.153763529 -s 1 -d -1 -p ACK -e 38 -c 2 -a 0 -i 0 -k MAC 
- -t 0.153763529 -s 1 -d -1 -p ACK -e 38 -c 2 -a 0 -i 0 -k MAC
h -t 0.153763529 -s 1 -d -1 -p ACK -e 38 -c 2 -a 0 -i 0 -k MAC
+ -t 0.153778529 -s 1 -d 0 -p ack -e 40 -c 2 -a 0 -i 4 -k RTR 
- -t 0.153778529 -s 1 -d 0 -p ack -e 40 -c 2 -a 0 -i 4 -k RTR
h -t 0.153778529 -s 1 -d 0 -p ack -e 40 -c 2 -a 0 -i 4 -k RTR
r -t 0.154068001 -s 2 -d -1 -p ACK -e 38 -c 2 -a 0 -i 0 -k MAC
+ -t 0.154257529 -s 1 -d -1 -p RTS -e 44 -c 2 -a 0 -i 0 -k MAC 
- -t 0.154257529 -s 1 -d -1 -p RTS -e 44 -c 2 -a 0 -i 0 -k MAC
h -t 0.154257529 -s 1 -d -1 -p RTS -e 44 -c 2 -a 0 -i 0 -k MAC
r -t 0.154610001 -s 2 -d -1 -p RTS -e 44 -c 2 -a 0 -i 0 -k MAC
+ -t 0.154620001 -s 2 -d -1 -p CTS -e 38 -c 2 -a 0 -i 0 -k MAC 
- -t 0.154620001 -s 2 -d -1 -p CTS -e 38 -c 2 -a 0 -i 0 -k MAC
h -t 0.154620001 -s 2 -d -1 -p CTS -e 38 -c 2 -a 0 -i 0 -k MAC
r -t 0.154924472 -s 1 -d -1 -p CTS -e 38 -c 2 -a 0 -i 0 -k MAC
+ -t 0.154934472 -s 1 -d 2 -p tcp -e 1098 -c 2 -a 0 -i 3 -k MAC 
- -t 0.154934472 -s 1 -d 2 -p tcp -e 1098 -c 2 -a 0 -i 3 -k MAC
h -t 0.154934472 -s 1 -d 2 -p tcp -e 1098 -c 2 -a 0 -i 3 -k MAC
r -t 0.163718944 -s 2 -d 2 -p tcp -e 1040 -c 2 -a 0 -i 3 -k MAC
+ -t 0.163728944 -s 2 -d -1 -p ACK -e 38 -c 2 -a 0 -i 0 -k MAC 
- -t 0.163728944 -s 2 -d -1 -p ACK -e 38 -c 2 -a 0 -i 0 -k MAC
h -t 0.163728944 -s 2 -d -1 -p ACK -e 38 -c 2 -a 0 -i 0 -k MAC
r -t 0.163743944 -s 2 -d 2 -p tcp -e 1040 -c 2 -a 0 -i 3 -k AGT
+ -t 0.163743944 -s 2 -d -1 -p ack -e 40 -c 2 -a 0 -i 5 -k AGT 
- -t 0.163743944 -s 2 -d -1 -p ack -e 40 -c 2 -a 0 -i 5 -k AGT
h -t 0.163743944 -s 2 -d -1 -p ack -e 40 -c 2 -a 0 -i 5 -k AGT
+ -t 0.163743944 -s 2 -d 1 -p ack -e 40 -c 2 -a 0 -i 5 -k RTR 
- -t 0.163743944 -s 2 -d 1 -p ack -e 40 -c 2 -a 0 -i 5 -k RTR
h -t 0.163743944 -s 2 -d 1 -p ack -e 40 -c 2 -a 0 -i 5 -k RTR
r -t 0.164033415 -s 1 -d -1 -p ACK -e 38 -c 2 -a 0 -i 0 -k MAC
+ -t 0.164123415 -s 1 -d -1 -p RTS -e 44 -c 2 -a 0 -i 0 -k MAC 
- -t 0.164123415 -s 1 -d -1 -p RTS -e 44 -c 2 -a 0 -i 0 -k MAC
h -t 0.164123415 -s 1 -d -1 -p RTS -e 44 -c 2 -a 0 -i 0 -k MAC
r -t 0.164475882 -s 0 -d -1 -p RTS -e 44 -c 2 -a 0 -i 0 -k MAC
+ -t 0.164485882 -s 0 -d -1 -p CTS -e 38 -c 2 -a 0 -i 0 -k MAC 
- -t 0.164485882 -s 0 -d -1 -p CTS -e 38 -c 2 -a 0 -i 0 -k MAC
h -t 0.164485882 -s 0 -d -1 -p CTS -e 38 -c 2 -a 0 -i 0 -k MAC
r -t 0.164790349 -s 1 -d -1 -p CTS -e 38 -c 2 -a 0 -i 0 -k MAC
+ -t 0.164800349 -s 1 -d 0 -p ack -e 98 -c 2 -a 0 -i 4 -k MAC 
- -t 0.164800349 -s 1 -d 0 -p ack -e 98 -c 2 -a 0 -i 4 -k MAC
h -t 0.164800349 -s 1 -d 0 -p ack -e 98 -c 2 -a 0 -i 4 -k MAC
r -t 0.165584816 -s 0 -d 0 -p ack -e 40 -c 2 -a 0 -i 4 -k MAC
+ -t 0.165594816 -s 0 -d -1 -p ACK -e 38 -c 2 -a 0 -i 0 -k MAC 
- -t 0.165594816 -s 0 -d -1 -p ACK -e 38 -c 2 -a 0 -i 0 -k MAC
h -t 0.165594816 -s 0 -d -1 -p ACK -e 38 -c 2 -a 0 -i 0 -k MAC
r -t 0.165609816 -s 0 -d 0 -p ack -e 40 -c 2 -a 0 -i 4 -k AGT
+ -t 0.165609816 -s 0 -d -1 -p tcp -e 1040 -c 2 -a 0 -i 6 -k AGT 
- -t 0.165609816 -s 0 -d -1 -p tcp -e 1040 -c 2 -a 0 -i 6 -k AGT
h -t 0.165609816 -s 0 -d -1 -p tcp -e 1040 -c 2 -a 0 -i 6 -k AGT
+ -t 0.165609816 -s 0 -d -1 -p tcp -e 1040 -c 2 -a 0 -i 7 -k AGT 
- -t 0.165609816 -s 0 -d -1 -p tcp -e 1040 -c 2 -a 0 -i 7 -k AGT
h -t 0.165609816 -s 0 -d -1 -p tcp -e 1040 -c 2 -a 0 -i 7 -k AGT
+ -t 0.165609816 -s 0 -d 1 -p tcp -e 1040 -c 2 -a 0 -i 6 -k RTR 
- -t 0.165609816 -s 0 -d 1 -p tcp -e 1040 -c 2 -a 0 -i 6 -k RTR
h -t 0.165609816 -s 0 -d 1 -p tcp -e 1040 -c 2 -a 0 -i 6 -k RTR
+ -t 0.165609816 -s 0 -d 1 -p tcp -e 1040 -c 2 -a 0 -i 7 -k RTR 
- -t 0.165609816 -s 0 -d 1 -p tcp -e 1040 -c 2 -a 0 -i 7 -k RTR
h -t 0.165609816 -s 0 -d 1 -p tcp -e 1040 -c 2 -a 0 -i 7 -k RTR
r -t 0.165899283 -s 1 -d -1 -p ACK -e 38 -c 2 -a 0 -i 0 -k MAC
+ -t 0.166408816 -s 0 -d -1 -p RTS -e 44 -c 2 -a 0 -i 0 -k MAC 
- -t 0.166408816 -s 0 -d -1 -p RTS -e 44 -c 2 -a 0 -i 0 -k MAC
h -t 0.166408816 -s 0 -d -1 -p RTS -e 44 -c 2 -a 0 -i 0 -k MAC
r -t 0.166761283 -s 1 -d -1 -p RTS -e 44 -c 2 -a 0 -i 0 -k MAC
+ -t 0.166771283 -s 1 -d -1 -p CTS -e 38 -c 2 -a 0 -i 0 -k MAC 
- -t 0.166771283 -s 1 -d -1 -p CTS -e 38 -c 2 -a 0 -i 0 -k MAC
h -t 0.166771283 -s 1 -d -1 -p CTS -e 38 -c 2 -a 0 -i 0 -k MAC
r -t 0.167075750 -s 0 -d -1 -p CTS -e 38 -c 2 -a 0 -i 0 -k MAC
+ -t 0.167085750 -s 0 -d 1 -p tcp -e 1098 -c 2 -a 0 -i 6 -k MAC 
- -t 0.167085750 -s 0 -d 1 -p tcp -e 1098 -c 2 -a 0 -i 6 -k MAC
h -t 0.167085750 -s 0 -d 1 -p tcp -e 1098 -c 2 -a 0 -i 6 -k MAC
r -t 0.175870217 -s 1 -d 1 -p tcp -e 1040 -c 2 -a 0 -i 6 -k MAC
+ -t 0.175880217 -s 1 -d -1 -p ACK -e 38 -c 2 -a 0 -i 0 -k MAC 
- -t 0.175880217 -s 1 -d -1 -p ACK -e 38 -c 2 -a 0 -i 0 -k MAC
h -t 0.175880217 -s 1 -d -1 -p ACK -e 38 -c 2 -a 0 -i 0 -k MAC
+ -t 0.175895217 -s 1 -d 2 -p tcp -e 1040 -c 2 -a 0 -i 6 -k RTR 
- -t 0.175895217 -s 1 -d 2 -p tcp -e 1040 -c 2 -a 0 -i 6 -k RTR
h -t 0.175895217 -s 1 -d 2 -p tcp -e 1040 -c 2 -a 0 -i 6 -k RTR
r -t 0.176184684 -s 0 -d -1 -p ACK -e 38 -c 2 -a 0 -i 0 -k MAC
+ -t 0.176374684 -s 0 -d -1 -p RTS -e 44 -c 2 -a 0 -i 0 -k MAC 
- -t 0.176374684 -s 0 -d -1 -p RTS -e 44 -c 2 -a 0 -i 0 -k MAC
h -t 0.176374684 -s 0 -d -1 -p RTS -e 44 -c 2 -a 0 -i 0 -k MAC
r -t 0.176727150 -s 1 -d -1 -p RTS -e 44 -c 2 -a 0 -i 0 -k MAC
+ -t 0.176737150 -s 1 -d -1 -p CTS -e 38 -c 2 -a 0 -i 0 -k MAC 
- -t 0.176737150 -s 1 -d -1 -p CTS -e 38 -c 2 -a 0 -i 0 -k MAC
h -t 0.176737150 -s 1 -d -1 -p CTS -e 38 -c 2 -a 0 -i 0 -k MAC
r -t 0.177041616 -s 0 -d -1 -p CTS -e 38 -c 2 -a 0 -i 0 -k MAC
+ -t 0.177051616 -s 0 -d 1 -p tcp -e 1098 -c 2 -a 0 -i 7 -k MAC 
- -t 0.177051616 -s 0 -d 1 -p tcp -e 1098 -c 2 -a 0 -i 7 -k MAC
h -t 0.177051616 -s 0 -d 1 -p tcp -e 1098 -c 2 -a 0 -i 7 -k MAC
r -t 0.185836082 -s 1 -d 1 -p tcp -e 1040 -c 2 -a 0 -i 7 -k MAC
+ -t 0.185846082 -s 1 -d -1 -p ACK -e 38 -c 2 -a 0 -i 0 -k MAC 
- -t 0.185846082 -s 1 -d -1 -p ACK -e 38 -c 2 -a 0 -i 0 -k MAC
h -t 0.185846082 -s 1 -d -1 -p ACK -e 38 -c 2 -a 0 -i 0 -k MAC
+ -t 0.185861082 -s 1 -d 2 -p tcp -e 1040 -c 2 -a 0 -i 7 -k RTR 
- -t 0.185861082 -s 1 -d 2 -p tcp -e 1040 -c 2 -a 0 -i 7 -k RTR
h -t 0.185861082 -s 1 -d 2 -p tcp -e 1040 -c 2 -a 0 -i 7 -k RTR
r -t 0.186150548 -s 0 -d -1 -p ACK -e 38 -c 2 -a 0 -i 0 -k MAC
+ -t 0.186270554 -s 2 -d -1 -p RTS -e 44 -c 2 -a 0 -i 0 -k MAC 
- -t 0.186270554 -s 2 -d -1 -p RTS -e 44 -c 2 -a 0 -i 0 -k MAC
h -t 0.186270554 -s 2 -d -1 -p RTS -e 44 -c 2 -a 0 -i 0 -k MAC
r -t 0.186623025 -s 1 -d -1 -p RTS -e 44 -c 2 -a 0 -i 0 -k MAC
+ -t 0.186633025 -s 1 -d -1 -p CTS -e 38 -c 2 -a 0 -i 0 -k MAC 
- -t 0.186633025 -s 1 -d -1 -p CTS -e 38 -c 2 -a 0 -i 0 -k MAC
h -t 0.186633025 -s 1 -d -1 -p CTS -e 38 -c 2 -a 0 -i 0 -k MAC
r -t 0.186937497 -s 2 -d -1 -p CTS -e 38 -c 2 -a 0 -i 0 -k MAC
+ -t 0.186947497 -s 2 -d 1 -p ack -e 98 -c 2 -a 0 -i 5 -k MAC 
- -t 0.186947497 -s 2 -d 1 -p ack -e 98 -c 2 -a 0 -i 5 -k MAC
h -t 0.186947497 -s 2 -d 1 -p ack -e 98 -c 2 -a 0 -i 5 -k MAC
r -t 0.187731968 -s 1 -d 1 -p ack -e 40 -c 2 -a 0 -i 5 -k MAC
+ -t 0.187741968 -s 1 -d -1 -p ACK -e 38 -c 2 -a 0 -i 0 -k MAC 
- -t 0.187741968 -s 1 -d -1 -p ACK -e 38 -c 2 -a 0 -i 0 -k MAC
h -t 0.187741968 -s 1 -d -1 -p ACK -e 38 -c 2 -a 0 -i 0 -k MAC
+ -t 0.187756968 -s 1 -d 0 -p ack -e 40 -c 2 -a 0 -i 5 -k RTR 
- -t 0.187756968 -s 1 -d 0 -p ack -e 40 -c 2 -a 0 -i 5 -k RTR
h -t 0.187756968 -s 1 -d 0 -p ack -e 40 -c 2 -a 0 -i 5 -k RTR
r -t 0.188046439 -s 2 -d -1 -p ACK -e 38 -c 2 -a 0 -i 0 -k MAC
+ -t 0.188255968 -s 1 -d -1 -p RTS -e 44 -c 2 -a 0 -i 0 -k MAC 
- -t 0.188255968 -s 1 -d -1 -p RTS -e 44 -c 2 -a 0 -i 0 -k MAC
h -t 0.188255968 -s 1 -d -1 -p RTS -e 44 -c 2 -a 0 -i 0 -k MAC
r -t 0.188608439 -s 2 -d -1 -p RTS -e 44 -c 2 -a 0 -i 0 -k MAC
+ -t 0.188618439 -s 2 -d -1 -p CTS -e 38 -c 2 -a 0 -i 0 -k MAC 
- -t 0.188618439 -s 2 -d -1 -p CTS -e 38 -c 2 -a 0 -i 0 -k MAC
h -t 0.188618439 -s 2 -d -1 -p CTS -e 38 -c 2 -a 0 -i 0 -k MAC
r -t 0.188922911 -s 1 -d -1 -p CTS -e 38 -c 2 -a 0 -i 0 -k MAC
+ -t 0.188932911 -s 1 -d 2 -p tcp -e 1098 -c 2 -a 0 -i 6 -k MAC 
- -t 0.188932911 -s 1 -d 2 -p tcp -e 1098 -c 2 -a 0 -i 6 -k MAC
h -t 0.188932911 -s 1 -d 2 -p tcp -e 1098 -c 2 -a 0 -i 6 -k MAC
r -t 0.197717382 -s 2 -d 2 -p tcp -e 1040 -c 2 -a 0 -i 6 -k MAC
+ -t 0.197727382 -s 2 -d -1 -p ACK -e 38 -c 2 -a 0 -i 0 -k MAC 
- -t 0.197727382 -s 2 -d -1 -p ACK -e 38 -c 2 -a 0 -i 0 -k MAC
h -t 0.197727382 -s 2 -d -1 -p ACK -e 38 -c 2 -a 0 -i 0 -k MAC
r -t 0.197742382 -s 2 -d 2 -p tcp -e 1040 -c 2 -a 0 -i 6 -k AGT
+ -t 0.197742382 -s 2 -d -1 -p ack -e 40 -c 2 -a 0 -i 8 -k AGT 
- -t 0.197742382 -s 2 -d -1 -p ack -e 40 -c 2 -a 0 -i 8 -k AGT
h -t 0.197742382 -s 2 -d -1 -p ack -e 40 -c 2 -a 0 -i 8 -k AGT
+ -t 0.197742382 -s 2 -d 1 -p ack -e 40 -c 2 -a 0 -i 8 -k RTR 
- -t 0.197742382 -s 2 -d 1 -p ack -e 40 -c 2 -a 0 -i 8 -k RTR
h -t 0.197742382 -s 2 -d 1 -p ack -e 40 -c 2 -a 0 -i 8 -k RTR
r -t 0.198031854 -s 1 -d -1 -p ACK -e 38 -c 2 -a 0 -i 0 -k MAC
+ -t 0.198221382 -s 2 -d -1 -p RTS -e 44 -c 2 -a 0 -i 0 -k MAC 
- -t 0.198221382 -s 2 -d -1 -p RTS -e 44 -c 2 -a 0 -i 0 -k MAC
h -t 0.198221382 -s 2 -d -1 -p RTS -e 44 -c 2 -a 0 -i 0 -k MAC
r -t 0.198573854 -s 1 -d -1 -p RTS -e 44 -c 2 -a 0 -i 0 -k MAC
+ -t 0.198583854 -s 1 -d -1 -p CTS -e 38 -c 2 -a 0 -i 0 -k MAC 
- -t 0.198583854 -s 1 -d -1 -p CTS -e 38 -c 2 -a 0 -i 0 -k MAC
h -t 0.198583854 -s 1 -d -1 -p CTS -e 38 -c 2 -a 0 -i 0 -k MAC
r -t 0.198888325 -s 2 -d -1 -p CTS -e 38 -c 2 -a 0 -i 0 -k MAC
+ -t 0.198898325 -s 2 -d 1 -p ack -e 98 -c 2 -a 0 -i 8 -k MAC 
- -t 0.198898325 -s 2 -d 1 -p ack -e 98 -c 2 -a 0 -i 8 -k MAC
h -t 0.198898325 -s 2 -d 1 -p ack -e 98 -c 2 -a 0 -i 8 -k MAC
r -t 0.199682796 -s 1 -d 1 -p ack -e 40 -c 2 -a 0 -i 8 -k MAC
+ -t 0.199692796 -s 1 -d -1 -p ACK -e 38 -c 2 -a 0 -i 0 -k MAC 
- -t 0.199692796 -s 1 -d -1 -p ACK -e 38 -c 2 -a 0 -i 0 -k MAC
h -t 0.199692796 -s 1 -d -1 -p ACK -e 38 -c 2 -a 0 -i 0 -k MAC
+ -t 0.199707796 -s 1 -d 0 -p ack -e 40 -c 2 -a 0 -i 8 -k RTR 
- -t 0.199707796 -s 1 -d 0 -p ack -e 40 -c 2 -a 0 -i 8 -k RTR
h -t 0.199707796 -s 1 -d 0 -p ack -e 40 -c 2 -a 0 -i 8 -k RTR
r -t 0.199997268 -s 2 -d -1 -p ACK -e 38 -c 2 -a 0 -i 0 -k MAC
+ -t 0.200106796 -s 1 -d -1 -p RTS -e 44 -c 2 -a 0 -i 0 -k MAC 
- -t 0.200106796 -s 1 -d -1 -p RTS -e 44 -c 2 -a 0 -i 0 -k MAC
h -t 0.200106796 -s 1 -d -1 -p RTS -e 44 -c 2 -a 0 -i 0 -k MAC
r -t 0.200459268 -s 2 -d -1 -p RTS -e 44 -c 2 -a 0 -i 0 -k MAC
+ -t 0.200469268 -s 2 -d -1 -p CTS -e 38 -c 2 -a 0 -i 0 -k MAC 
- -t 0.200469268 -s 2 -d -1 -p CTS -e 38 -c 2 -a 0 -i 0 -k MAC
h -t 0.200469268 -s 2 -d -1 -p CTS -e 38 -c 2 -a 0 -i 0 -k MAC
r -t 0.200773739 -s 1 -d -1 -p CTS -e 38 -c 2 -a 0 -i 0 -k MAC
+ -t 0.200783739 -s 1 -d 2 -p tcp -e 1098 -c 2 -a 0 -i 7 -k MAC 
- -t 0.200783739 -s 1 -d 2 -p tcp -e 1098 -c 2 -a 0 -i 7 -k MAC
h -t 0.200783739 -s 1 -d 2 -p tcp -e 1098 -c 2 -a 0 -i 7 -k MAC
r -t 0.209568211 -s 2 -d 2 -p tcp -e 1040 -c 2 -a 0 -i 7 -k MAC
+ -t 0.209578211 -s 2 -d -1 -p ACK -e 38 -c 2 -a 0 -i 0 -k MAC 
- -t 0.209578211 -s 2 -d -1 -p ACK -e 38 -c 2 -a 0 -i 0 -k MAC
h -t 0.209578211 -s 2 -d -1 -p ACK -e 38 -c 2 -a 0 -i 0 -k MAC
r -t 0.209593211 -s 2 -d 2 -p tcp -e 1040 -c 2 -a 0 -i 7 -k AGT
+ -t 0.209593211 -s 2 -d -1 -p ack -e 40 -c 2 -a 0 -i 9 -k AGT 
- -t 0.209593211 -s 2 -d -1 -p ack -e 40 -c 2 -a 0 -i 9 -k AGT
h -t 0.209593211 -s 2 -d -1 -p ack -e 40 -c 2 -a 0 -i 9 -k AGT
+ -t 0.209593211 -s 2 -d 1 -p ack -e 40 -c 2 -a 0 -i 9 -k RTR 
- -t 0.209593211 -s 2 -d 1 -p ack -e 40 -c 2 -a 0 -i 9 -k RTR
h -t 0.209593211 -s 2 -d 1 -p ack -e 40 -c 2 -a 0 -i 9 -k RTR
r -t 0.209882682 -s 1 -d -1 -p ACK -e 38 -c 2 -a 0 -i 0 -k MAC
+ -t 0.209972211 -s 2 -d -1 -p RTS -e 44 -c 2 -a 0 -i 0 -k MAC 
- -t 0.209972211 -s 2 -d -1 -p RTS -e 44 -c 2 -a 0 -i 0 -k MAC
h -t 0.209972211 -s 2 -d -1 -p RTS -e 44 -c 2 -a 0 -i 0 -k MAC
r -t 0.210324682 -s 1 -d -1 -p RTS -e 44 -c 2 -a 0 -i 0 -k MAC
+ -t 0.210334682 -s 1 -d -1 -p CTS -e 38 -c 2 -a 0 -i 0 -k MAC 
- -t 0.210334682 -s 1 -d -1 -p CTS -e 38 -c 2 -a 0 -i 0 -k MAC
h -t 0.210334682 -s 1 -d -1 -p CTS -e 38 -c 2 -a 0 -i 0 -k MAC
r -t 0.210639153 -s 2 -d -1 -p CTS -e 38 -c 2 -a 0 -i 0 -k MAC
+ -t 0.210649153 -s 2 -d 1 -p ack -e 98 -c 2 -a 0 -i 9 -k MAC 
- -t 0.210649153 -s 2 -d 1 -p ack -e 98 -c 2 -a 0 -i 9 -k MAC
h -t 0.210649153 -s 2 -d 1 -p ack -e 98 -c 2 -a 0 -i 9 -k MAC
r -t 0.211433625 -s 1 -d 1 -p ack -e 40 -c 2 -a 0 -i 9 -k MAC
+ -t 0.211443625 -s 1 -d -1 -p ACK -e 38 -c 2 -a 0 -i 0 -k MAC 
- -t 0.211443625 -s 1 -d -1 -p ACK -e 38 -c 2 -a 0 -i 0 -k MAC
h -t 0.211443625 -s 1 -d -1 -p ACK -e 38 -c 2 -a 0 -i 0 -k MAC
+ -t 0.211458625 -s 1 -d 0 -p ack -e 40 -c 2 -a 0 -i 9 -k RTR 
- -t 0.211458625 -s 1 -d 0 -p ack -e 40 -c 2 -a 0 -i 9 -k RTR
h -t 0.211458625 -s 1 -d 0 -p ack -e 40 -c 2 -a 0 -i 9 -k RTR