M 0.10000 0 (110.00, 110.00, 0.00), (150.00, 150.00), 10.00
M 0.10000 1 (210.00, 210.00, 0.00), (170.00, 170.00), 10.00
M 0.10000 2 (310.00, 310.00, 0.00), (190.00, 190.00), 10.00
s 0.100000000 _0_ AGT  --- 0 tcp 40 [0 0 0 0] ------- [0:0 2:0 32 0] [0 0] 0 0
r 0.100000000 _0_ RTR  --- 0 tcp 40 [0 0 0 0] ------- [0:0 2:0 32 0] [0 0] 0 0
s 0.100000000 _0_ RTR  --- 0 AODV 48 [0 0 0 0] ------- [0:255 -1:255 30 0] [0x2 1 1 [2 0] [0 4]] (REQUEST)
s 0.100115000 _0_ MAC  --- 0 AODV 106 [0 ffffffff 0 800] ------- [0:255 -1:255 30 0] [0x2 1 1 [2 0] [0 4]] (REQUEST)
r 0.100963471 _1_ MAC  --- 0 AODV 48 [0 ffffffff 0 800] ------- [0:255 -1:255 30 0] [0x2 1 1 [2 0] [0 4]] (REQUEST)
r 0.100988471 _1_ RTR  --- 0 AODV 48 [0 ffffffff 0 800] ------- [0:255 -1:255 30 0] [0x2 1 1 [2 0] [0 4]] (REQUEST)
s 0.101869698 _1_ RTR  --- 0 AODV 48 [0 ffffffff 0 800] ------- [1:255 -1:255 29 0] [0x2 2 1 [2 0] [0 4]] (REQUEST)
s 0.102264698 _1_ MAC  --- 0 AODV 106 [0 ffffffff 1 800] ------- [1:255 -1:255 29 0] [0x2 2 1 [2 0] [0 4]] (REQUEST)
r 0.103113169 _0_ MAC  --- 0 AODV 48 [0 ffffffff 1 800] ------- [1:255 -1:255 29 0] [0x2 2 1 [2 0] [0 4]] (REQUEST)
r 0.103113170 _2_ MAC  --- 0 AODV 48 [0 ffffffff 1 800] ------- [1:255 -1:255 29 0] [0x2 2 1 [2 0] [0 4]] (REQUEST)
r 0.103138169 _0_ RTR  --- 0 AODV 48 [0 ffffffff 1 800] ------- [1:255 -1:255 29 0] [0x2 2 1 [2 0] [0 4]] (REQUEST)
r 0.103138170 _2_ RTR  --- 0 AODV 48 [0 ffffffff 1 800] ------- [1:255 -1:255 29 0] [0x2 2 1 [2 0] [0 4]] (REQUEST)
s 0.103138170 _2_ RTR  --- 0 AODV 44 [0 0 0 0] ------- [2:255 0:255 30 1] [0x4 1 [2 4] 10.000000] (REPLY)
s 0.103353170 _2_ MAC  --- 0 ARP 86 [0 ffffffff 2 806] ------- [REQUEST 2/2 0/1]
r 0.104041641 _1_ MAC  --- 0 ARP 28 [0 ffffffff 2 806] ------- [REQUEST 2/2 0/1]
s 0.104336641 _1_ MAC  --- 0 RTS 44 [52e 2 1 0] 
r 0.104689112 _2_ MAC  --- 0 RTS 44 [52e 2 1 0] 
s 0.104699112 _2_ MAC  --- 0 CTS 38 [3f4 1 0 0] 
r 0.105003584 _1_ MAC  --- 0 CTS 38 [3f4 1 0 0] 
s 0.105013584 _1_ MAC  --- 0 ARP 86 [13a 2 1 806] ------- [REPLY 1/1 2/2]
r 0.105702055 _2_ MAC  --- 0 ARP 28 [13a 2 1 806] ------- [REPLY 1/1 2/2]
s 0.105712055 _2_ MAC  --- 0 ACK 38 [0 1 0 0] 
r 0.106016527 _1_ MAC  --- 0 ACK 38 [0 1 0 0] 
s 0.106426055 _2_ MAC  --- 0 RTS 44 [5ae 1 2 0] 
r 0.106778527 _1_ MAC  --- 0 RTS 44 [5ae 1 2 0] 
s 0.106788527 _1_ MAC  --- 0 CTS 38 [474 2 0 0] 
r 0.107092998 _2_ MAC  --- 0 CTS 38 [474 2 0 0] 
s 0.107102998 _2_ MAC  --- 0 AODV 102 [13a 1 2 800] ------- [2:255 0:255 30 1] [0x4 1 [2 4] 10.000000] (REPLY)
r 0.107919469 _1_ MAC  --- 0 AODV 44 [13a 1 2 800] ------- [2:255 0:255 30 1] [0x4 1 [2 4] 10.000000] (REPLY)
s 0.107929469 _1_ MAC  --- 0 ACK 38 [0 2 0 0] 
r 0.107944469 _1_ RTR  --- 0 AODV 44 [13a 1 2 800] ------- [2:255 0:255 30 1] [0x4 1 [2 4] 10.000000] (REPLY)
f 0.107944469 _1_ RTR  --- 0 AODV 44 [13a 1 2 800] ------- [2:255 0:255 29 0] [0x4 2 [2 4] 10.000000] (REPLY)
r 0.108233941 _2_ MAC  --- 0 ACK 38 [0 2 0 0] 
s 0.108523469 _1_ MAC  --- 0 ARP 86 [0 ffffffff 1 806] ------- [REQUEST 1/1 0/0]
r 0.109211940 _0_ MAC  --- 0 ARP 28 [0 ffffffff 1 806] ------- [REQUEST 1/1 0/0]
r 0.109211941 _2_ MAC  --- 0 ARP 28 [0 ffffffff 1 806] ------- [REQUEST 1/1 0/0]
s 0.109426940 _0_ MAC  --- 0 RTS 44 [52e 1 0 0] 
r 0.109779411 _1_ MAC  --- 0 RTS 44 [52e 1 0 0] 
s 0.109789411 _1_ MAC  --- 0 CTS 38 [3f4 0 0 0] 
r 0.110093882 _0_ MAC  --- 0 CTS 38 [3f4 0 0 0] 
s 0.110103882 _0_ MAC  --- 0 ARP 86 [13a 1 0 806] ------- [REPLY 0/0 1/1]
r 0.110792352 _1_ MAC  --- 0 ARP 28 [13a 1 0 806] ------- [REPLY 0/0 1/1]
s 0.110802352 _1_ MAC  --- 0 ACK 38 [0 0 0 0] 
r 0.111106823 _0_ MAC  --- 0 ACK 38 [0 0 0 0] 
s 0.111536352 _1_ MAC  --- 0 RTS 44 [5ae 0 1 0] 
r 0.111888823 _0_ MAC  --- 0 RTS 44 [5ae 0 1 0] 
s 0.111898823 _0_ MAC  --- 0 CTS 38 [474 1 0 0] 
r 0.112203294 _1_ MAC  --- 0 CTS 38 [474 1 0 0] 
s 0.112213294 _1_ MAC  --- 0 AODV 102 [13a 0 1 800] ------- [2:255 0:255 29 0] [0x4 2 [2 4] 10.000000] (REPLY)
r 0.113029764 _0_ MAC  --- 0 AODV 44 [13a 0 1 800] ------- [2:255 0:255 29 0] [0x4 2 [2 4] 10.000000] (REPLY)
s 0.113039764 _0_ MAC  --- 0 ACK 38 [0 1 0 0] 
r 0.113054764 _0_ RTR  --- 0 AODV 44 [13a 0 1 800] ------- [2:255 0:255 29 0] [0x4 2 [2 4] 10.000000] (REPLY)
s 0.113054764 _0_ RTR  --- 0 tcp 40 [0 0 0 0] ------- [0:0 2:0 30 1] [0 0] 0 0
r 0.113344235 _1_ MAC  --- 0 ACK 38 [0 1 0 0] 
s 0.113633764 _0_ MAC  --- 0 RTS 44 [58e 1 0 0] 
r 0.113986235 _1_ MAC  --- 0 RTS 44 [58e 1 0 0] 
s 0.113996235 _1_ MAC  --- 0 CTS 38 [454 0 0 0] 
r 0.114300705 _0_ MAC  --- 0 CTS 38 [454 0 0 0] 
s 0.114310705 _0_ MAC  --- 0 tcp 98 [13a 1 0 800] ------- [0:0 2:0 30 1] [0 0] 0 0
r 0.115095176 _1_ MAC  --- 0 tcp 40 [13a 1 0 800] ------- [0:0 2:0 30 1] [0 0] 1 0
s 0.115105176 _1_ MAC  --- 0 ACK 38 [0 0 0 0] 
r 0.115120176 _1_ RTR  --- 0 tcp 40 [13a 1 0 800] ------- [0:0 2:0 30 1] [0 0] 1 0
f 0.115120176 _1_ RTR  --- 0 tcp 40 [13a 1 0 800] ------- [0:0 2:0 29 2] [0 0] 1 0
r 0.115409646 _0_ MAC  --- 0 ACK 38 [0 0 0 0] 
s 0.115939176 _1_ MAC  --- 0 RTS 44 [58e 2 1 0] 
r 0.116291647 _2_ MAC  --- 0 RTS 44 [58e 2 1 0] 
s 0.116301647 _2_ MAC  --- 0 CTS 38 [454 1 0 0] 
r 0.116606119 _1_ MAC  --- 0 CTS 38 [454 1 0 0] 
s 0.116616119 _1_ MAC  --- 0 tcp 98 [13a 2 1 800] ------- [0:0 2:0 29 2] [0 0] 1 0
r 0.117400590 _2_ MAC  --- 0 tcp 40 [13a 2 1 800] ------- [0:0 2:0 29 2] [0 0] 2 0
s 0.117410590 _2_ MAC  --- 0 ACK 38 [0 1 0 0] 
r 0.117425590 _2_ AGT  --- 0 tcp 40 [13a 2 1 800] ------- [0:0 2:0 29 2] [0 0] 2 0
s 0.117425590 _2_ AGT  --- 1 ack 40 [0 0 0 0] ------- [2:0 0:0 32 0] [0 0] 0 0
r 0.117425590 _2_ RTR  --- 1 ack 40 [0 0 0 0] ------- [2:0 0:0 32 0] [0 0] 0 0
s 0.117425590 _2_ RTR  --- 1 ack 40 [0 0 0 0] ------- [2:0 0:0 30 1] [0 0] 0 0
r 0.117715061 _1_ MAC  --- 0 ACK 38 [0 1 0 0] 
s 0.118084590 _2_ MAC  --- 0 RTS 44 [58e 1 2 0] 
r 0.118437061 _1_ MAC  --- 0 RTS 44 [58e 1 2 0] 
s 0.118447061 _1_ MAC  --- 0 CTS 38 [454 2 0 0] 
r 0.118751533 _2_ MAC  --- 0 CTS 38 [454 2 0 0] 
s 0.118761533 _2_ MAC  --- 1 ack 98 [13a 1 2 800] ------- [2:0 0:0 30 1] [0 0] 0 0
r 0.119546004 _1_ MAC  --- 1 ack 40 [13a 1 2 800] ------- [2:0 0:0 30 1] [0 0] 1 0
s 0.119556004 _1_ MAC  --- 0 ACK 38 [0 2 0 0] 
r 0.119571004 _1_ RTR  --- 1 ack 40 [13a 1 2 800] ------- [2:0 0:0 30 1] [0 0] 1 0
f 0.119571004 _1_ RTR  --- 1 ack 40 [13a 1 2 800] ------- [2:0 0:0 29 0] [0 0] 1 0
r 0.119860476 _2_ MAC  --- 0 ACK 38 [0 2 0 0] 
s 0.120130004 _1_ MAC  --- 0 RTS 44 [58e 0 1 0] 
r 0.120482474 _0_ MAC  --- 0 RTS 44 [58e 0 1 0] 
s 0.120492474 _0_ MAC  --- 0 CTS 38 [454 1 0 0] 
r 0.120796944 _1_ MAC  --- 0 CTS 38 [454 1 0 0] 
s 0.120806944 _1_ MAC  --- 1 ack 98 [13a 0 1 800] ------- [2:0 0:0 29 0] [0 0] 1 0
r 0.121591414 _0_ MAC  --- 1 ack 40 [13a 0 1 800] ------- [2:0 0:0 29 0] [0 0] 2 0
s 0.121601414 _0_ MAC  --- 0 ACK 38 [0 1 0 0] 
r 0.121616414 _0_ AGT  --- 1 ack 40 [13a 0 1 800] ------- [2:0 0:0 29 0] [0 0] 2 0
s 0.121616414 _0_ AGT  --- 2 tcp 1040 [0 0 0 0] ------- [0:0 2:0 32 0] [1 0] 0 0
r 0.121616414 _0_ RTR  --- 2 tcp 1040 [0 0 0 0] ------- [0:0 2:0 32 0] [1 0] 0 0
s 0.121616414 _0_ AGT  --- 3 tcp 1040 [0 0 0 0] ------- [0:0 2:0 32 0] [2 0] 0 0
r 0.121616414 _0_ RTR  --- 3 tcp 1040 [0 0 0 0] ------- [0:0 2:0 32 0] [2 0] 0 0
s 0.121616414 _0_ RTR  --- 2 tcp 1040 [0 0 0 0] ------- [0:0 2:0 30 1] [1 0] 0 0
s 0.121616414 _0_ RTR  --- 3 tcp 1040 [0 0 0 0] ------- [0:0 2:0 30 1] [2 0] 0 0
r 0.121905884 _1_ MAC  --- 0 ACK 38 [0 1 0 0] 
s 0.122195414 _0_ MAC  --- 0 RTS 44 [24ce 1 0 0] 
r 0.122547884 _1_ MAC  --- 0 RTS 44 [24ce 1 0 0] 
s 0.122557884 _1_ MAC  --- 0 CTS 38 [2394 0 0 0] 
r 0.122862354 _0_ MAC  --- 0 CTS 38 [2394 0 0 0] 
s 0.122872354 _0_ MAC  --- 2 tcp 1098 [13a 1 0 800] ------- [0:0 2:0 30 1] [1 0] 0 0
r 0.131656824 _1_ MAC  --- 2 tcp 1040 [13a 1 0 800] ------- [0:0 2:0 30 1] [1 0] 1 0
s 0.131666824 _1_ MAC  --- 0 ACK 38 [0 0 0 0] 
r 0.131681824 _1_ RTR  --- 2 tcp 1040 [13a 1 0 800] ------- [0:0 2:0 30 1] [1 0] 1 0
f 0.131681824 _1_ RTR  --- 2 tcp 1040 [13a 1 0 800] ------- [0:0 2:0 29 2] [1 0] 1 0
r 0.131971293 _0_ MAC  --- 0 ACK 38 [0 0 0 0] 
s 0.132201293 _0_ MAC  --- 0 RTS 44 [24ce 1 0 0] 
r 0.132553762 _1_ MAC  --- 0 RTS 44 [24ce 1 0 0] 
s 0.132563762 _1_ MAC  --- 0 CTS 38 [2394 0 0 0] 
r 0.132868232 _0_ MAC  --- 0 CTS 38 [2394 0 0 0] 
s 0.132878232 _0_ MAC  --- 3 tcp 1098 [13a 1 0 800] ------- [0:0 2:0 30 1] [2 0] 0 0
r 0.141662701 _1_ MAC  --- 3 tcp 1040 [13a 1 0 800] ------- [0:0 2:0 30 1] [2 0] 1 0
s 0.141672701 _1_ MAC  --- 0 ACK 38 [0 0 0 0] 
r 0.141687701 _1_ RTR  --- 3 tcp 1040 [13a 1 0 800] ------- [0:0 2:0 30 1] [2 0] 1 0
f 0.141687701 _1_ RTR  --- 3 tcp 1040 [13a 1 0 800] ------- [0:0 2:0 29 2] [2 0] 1 0
r 0.141977170 _0_ MAC  --- 0 ACK 38 [0 0 0 0] 
s 0.142066701 _1_ MAC  --- 0 RTS 44 [24ce 2 1 0] 
r 0.142419172 _2_ MAC  --- 0 RTS 44 [24ce 2 1 0] 
s 0.142429172 _2_ MAC  --- 0 CTS 38 [2394 1 0 0] 
r 0.142733644 _1_ MAC  --- 0 CTS 38 [2394 1 0 0] 
s 0.142743644 _1_ MAC  --- 2 tcp 1098 [13a 2 1 800] ------- [0:0 2:0 29 2] [1 0] 1 0
r 0.151528115 _2_ MAC  --- 2 tcp 1040 [13a 2 1 800] ------- [0:0 2:0 29 2] [1 0] 2 0
s 0.151538115 _2_ MAC  --- 0 ACK 38 [0 1 0 0] 
r 0.151553115 _2_ AGT  --- 2 tcp 1040 [13a 2 1 800] ------- [0:0 2:0 29 2] [1 0] 2 0
s 0.151553115 _2_ AGT  --- 4 ack 40 [0 0 0 0] ------- [2:0 0:0 32 0] [1 0] 0 0
r 0.151553115 _2_ RTR  --- 4 ack 40 [0 0 0 0] ------- [2:0 0:0 32 0] [1 0] 0 0
s 0.151553115 _2_ RTR  --- 4 ack 40 [0 0 0 0] ------- [2:0 0:0 30 1] [1 0] 0 0
r 0.151842587 _1_ MAC  --- 0 ACK 38 [0 1 0 0] 
s 0.152292115 _2_ MAC  --- 0 RTS 44 [58e 1 2 0] 
r 0.152644587 _1_ MAC  --- 0 RTS 44 [58e 1 2 0] 
s 0.152654587 _1_ MAC  --- 0 CTS 38 [454 2 0 0] 
r 0.152959058 _2_ MAC  --- 0 CTS 38 [454 2 0 0] 
s 0.152969058 _2_ MAC  --- 4 ack 98 [13a 1 2 800] ------- [2:0 0:0 30 1] [1 0] 0 0
r 0.153753529 _1_ MAC  --- 4 ack 40 [13a 1 2 800] ------- [2:0 0:0 30 1] [1 0] 1 0
s 0.153763529 _1_ MAC  --- 0 ACK 38 [0 2 0 0] 
r 0.153778529 _1_ RTR  --- 4 ack 40 [13a 1 2 800] ------- [2:0 0:0 30 1] [1 0] 1 0
f 0.153778529 _1_ RTR  --- 4 ack 40 [13a 1 2 800] ------- [2:0 0:0 29 0] [1 0] 1 0
r 0.154068001 _2_ MAC  --- 0 ACK 38 [0 2 0 0] 
s 0.154257529 _1_ MAC  --- 0 RTS 44 [24ce 2 1 0] 
r 0.154610001 _2_ MAC  --- 0 RTS 44 [24ce 2 1 0] 
s 0.154620001 _2_ MAC  --- 0 CTS 38 [2394 1 0 0] 
r 0.154924472 _1_ MAC  --- 0 CTS 38 [2394 1 0 0] 
s 0.154934472 _1_ MAC  --- 3 tcp 1098 [13a 2 1 800] ------- [0:0 2:0 29 2] [2 0] 1 0
r 0.163718944 _2_ MAC  --- 3 tcp 1040 [13a 2 1 800] ------- [0:0 2:0 29 2] [2 0] 2 0
s 0.163728944 _2_ MAC  --- 0 ACK 38 [0 1 0 0] 
r 0.163743944 _2_ AGT  --- 3 tcp 1040 [13a 2 1 800] ------- [0:0 2:0 29 2] [2 0] 2 0
s 0.163743944 _2_ AGT  --- 5 ack 40 [0 0 0 0] ------- [2:0 0:0 32 0] [2 0] 0 0
r 0.163743944 _2_ RTR  --- 5 ack 40 [0 0 0 0] ------- [2:0 0:0 32 0] [2 0] 0 0
s 0.163743944 _2_ RTR  --- 5 ack 40 [0 0 0 0] ------- [2:0 0:0 30 1] [2 0] 0 0
r 0.164033415 _1_ MAC  --- 0 ACK 38 [0 1 0 0] 
s 0.164123415 _1_ MAC  --- 0 RTS 44 [58e 0 1 0] 
r 0.164475882 _0_ MAC  --- 0 RTS 44 [58e 0 1 0] 
s 0.164485882 _0_ MAC  --- 0 CTS 38 [454 1 0 0] 
r 0.164790349 _1_ MAC  --- 0 CTS 38 [454 1 0 0] 
s 0.164800349 _1_ MAC  --- 4 ack 98 [13a 0 1 800] ------- [2:0 0:0 29 0] [1 0] 1 0
r 0.165584816 _0_ MAC  --- 4 ack 40 [13a 0 1 800] ------- [2:0 0:0 29 0] [1 0] 2 0
s 0.165594816 _0_ MAC  --- 0 ACK 38 [0 1 0 0] 
r 0.165609816 _0_ AGT  --- 4 ack 40 [13a 0 1 800] ------- [2:0 0:0 29 0] [1 0] 2 0
s 0.165609816 _0_ AGT  --- 6 tcp 1040 [0 0 0 0] ------- [0:0 2:0 32 0] [3 0] 0 0
r 0.165609816 _0_ RTR  --- 6 tcp 1040 [0 0 0 0] ------- [0:0 2:0 32 0] [3 0] 0 0
s 0.165609816 _0_ AGT  --- 7 tcp 1040 [0 0 0 0] ------- [0:0 2:0 32 0] [4 0] 0 0
r 0.165609816 _0_ RTR  --- 7 tcp 1040 [0 0 0 0] ------- [0:0 2:0 32 0] [4 0] 0 0
s 0.165609816 _0_ RTR  --- 6 tcp 1040 [0 0 0 0] ------- [0:0 2:0 30 1] [3 0] 0 0
s 0.165609816 _0_ RTR  --- 7 tcp 1040 [0 0 0 0] ------- [0:0 2:0 30 1] [4 0] 0 0
r 0.165899283 _1_ MAC  --- 0 ACK 38 [0 1 0 0] 
s 0.166408816 _0_ MAC  --- 0 RTS 44 [24ce 1 0 0] 
r 0.166761283 _1_ MAC  --- 0 RTS 44 [24ce 1 0 0] 
s 0.166771283 _1_ MAC  --- 0 CTS 38 [2394 0 0 0] 
r 0.167075750 _0_ MAC  --- 0 CTS 38 [2394 0 0 0] 
s 0.167085750 _0_ MAC  --- 6 tcp 1098 [13a 1 0 800] ------- [0:0 2:0 30 1] [3 0] 0 0
r 0.175870217 _1_ MAC  --- 6 tcp 1040 [13a 1 0 800] ------- [0:0 2:0 30 1] [3 0] 1 0
s 0.175880217 _1_ MAC  --- 0 ACK 38 [0 0 0 0] 
r 0.175895217 _1_ RTR  --- 6 tcp 1040 [13a 1 0 800] ------- [0:0 2:0 30 1] [3 0] 1 0
f 0.175895217 _1_ RTR  --- 6 tcp 1040 [13a 1 0 800] ------- [0:0 2:0 29 2] [3 0] 1 0
r 0.176184684 _0_ MAC  --- 0 ACK 38 [0 0 0 0] 
s 0.176374684 _0_ MAC  --- 0 RTS 44 [24ce 1 0 0] 
r 0.176727150 _1_ MAC  --- 0 RTS 44 [24ce 1 0 0] 
s 0.176737150 _1_ MAC  --- 0 CTS 38 [2394 0 0 0] 
r 0.177041616 _0_ MAC  --- 0 CTS 38 [2394 0 0 0] 
s 0.177051616 _0_ MAC  --- 7 tcp 1098 [13a 1 0 800] ------- [0:0 2:0 30 1] [4 0] 0 0
r 0.185836082 _1_ MAC  --- 7 tcp 1040 [13a 1 0 800] ------- [0:0 2:0 30 1] [4 0] 1 0
s 0.185846082 _1_ MAC  --- 0 ACK 38 [0 0 0 0] 
r 0.185861082 _1_ RTR  --- 7 tcp 1040 [13a 1 0 800] ------- [0:0 2:0 30 1] [4 0] 1 0
f 0.185861082 _1_ RTR  --- 7 tcp 1040 [13a 1 0 800] ------- [0:0 2:0 29 2] [4 0] 1 0
r 0.186150548 _0_ MAC  --- 0 ACK 38 [0 0 0 0] 
s 0.186270554 _2_ MAC  --- 0 RTS 44 [58e 1 2 0] 
r 0.186623025 _1_ MAC  --- 0 RTS 44 [58e 1 2 0] 
s 0.186633025 _1_ MAC  --- 0 CTS 38 [454 2 0 0] 
r 0.186937497 _2_ MAC  --- 0 CTS 38 [454 2 0 0] 
s 0.186947497 _2_ MAC  --- 5 ack 98 [13a 1 2 800] ------- [2:0 0:0 30 1] [2 0] 0 0
r 0.187731968 _1_ MAC  --- 5 ack 40 [13a 1 2 800] ------- [2:0 0:0 30 1] [2 0] 1 0
s 0.187741968 _1_ MAC  --- 0 ACK 38 [0 2 0 0] 
r 0.187756968 _1_ RTR  --- 5 ack 40 [13a 1 2 800] ------- [2:0 0:0 30 1] [2 0] 1 0
f 0.187756968 _1_ RTR  --- 5 ack 40 [13a 1 2 800] ------- [2:0 0:0 29 0] [2 0] 1 0
r 0.188046439 _2_ MAC  --- 0 ACK 38 [0 2 0 0] 
s 0.188255968 _1_ MAC  --- 0 RTS 44 [24ce 2 1 0] 
r 0.188608439 _2_ MAC  --- 0 RTS 44 [24ce 2 1 0] 
s 0.188618439 _2_ MAC  --- 0 CTS 38 [2394 1 0 0] 
r 0.188922911 _1_ MAC  --- 0 CTS 38 [2394 1 0 0] 
s 0.188932911 _1_ MAC  --- 6 tcp 1098 [13a 2 1 800] ------- [0:0 2:0 29 2] [3 0] 1 0
r 0.197717382 _2_ MAC  --- 6 tcp 1040 [13a 2 1 800] ------- [0:0 2:0 29 2] [3 0] 2 0
s 0.197727382 _2_ MAC  --- 0 ACK 38 [0 1 0 0] 
r 0.197742382 _2_ AGT  --- 6 tcp 1040 [13a 2 1 800] ------- [0:0 2:0 29 2] [3 0] 2 0
s 0.197742382 _2_ AGT  --- 8 ack 40 [0 0 0 0] ------- [2:0 0:0 32 0] [3 0] 0 0
r 0.197742382 _2_ RTR  --- 8 ack 40 [0 0 0 0] ------- [2:0 0:0 32 0] [3 0] 0 0
s 0.197742382 _2_ RTR  --- 8 ack 40 [0 0 0 0] ------- [2:0 0:0 30 1] [3 0] 0 0
r 0.198031854 _1_ MAC  --- 0 ACK 38 [0 1 0 0] 
s 0.198221382 _2_ MAC  --- 0 RTS 44 [58e 1 2 0] 
r 0.198573854 _1_ MAC  --- 0 RTS 44 [58e 1 2 0] 
s 0.198583854 _1_ MAC  --- 0 CTS 38 [454 2 0 0] 
r 0.198888325 _2_ MAC  --- 0 CTS 38 [454 2 0 0] 
s 0.198898325 _2_ MAC  --- 8 ack 98 [13a 1 2 800] ------- [2:0 0:0 30 1] [3 0] 0 0
r 0.199682796 _1_ MAC  --- 8 ack 40 [13a 1 2 800] ------- [2:0 0:0 30 1] [3 0] 1 0
s 0.199692796 _1_ MAC  --- 0 ACK 38 [0 2 0 0] 
r 0.199707796 _1_ RTR  --- 8 ack 40 [13a 1 2 800] ------- [2:0 0:0 30 1] [3 0] 1 0
f 0.199707796 _1_ RTR  --- 8 ack 40 [13a 1 2 800] ------- [2:0 0:0 29 0] [3 0] 1 0
r 0.199997268 _2_ MAC  --- 0 ACK 38 [0 2 0 0] 
s 0.200106796 _1_ MAC  --- 0 RTS 44 [24ce 2 1 0] 
r 0.200459268 _2_ MAC  --- 0 RTS 44 [24ce 2 1 0] 
s 0.200469268 _2_ MAC  --- 0 CTS 38 [2394 1 0 0] 
r 0.200773739 _1_ MAC  --- 0 CTS 38 [2394 1 0 0] 
s 0.200783739 _1_ MAC  --- 7 tcp 1098 [13a 2 1 800] ------- [0:0 2:0 29 2] [4 0] 1 0
r 0.209568211 _2_ MAC  --- 7 tcp 1040 [13a 2 1 800] ------- [0:0 2:0 29 2] [4 0] 2 0
s 0.209578211 _2_ MAC  --- 0 ACK 38 [0 1 0 0] 
r 0.209593211 _2_ AGT  --- 7 tcp 1040 [13a 2 1 800] ------- [0:0 2:0 29 2] [4 0] 2 0
s 0.209593211 _2_ AGT  --- 9 ack 40 [0 0 0 0] ------- [2:0 0:0 32 0] [4 0] 0 0
r 0.209593211 _2_ RTR  --- 9 ack 40 [0 0 0 0] ------- [2:0 0:0 32 0] [4 0] 0 0
s 0.209593211 _2_ RTR  --- 9 ack 40 [0 0 0 0] ------- [2:0 0:0 30 1] [4 0] 0 0
r 0.209882682 _1_ MAC  --- 0 ACK 38 [0 1 0 0] 
s 0.209972211 _2_ MAC  --- 0 RTS 44 [58e 1 2 0] 
r 0.210324682 _1_ MAC  --- 0 RTS 44 [58e 1 2 0] 
s 0.210334682 _1_ MAC  --- 0 CTS 38 [454 2 0 0] 
r 0.210639153 _2_ MAC  --- 0 CTS 38 [454 2 0 0] 
s 0.210649153 _2_ MAC  --- 9 ack 98 [13a 1 2 800] ------- [2:0 0:0 30 1] [4 0] 0 0
r 0.211433625 _1_ MAC  --- 9 ack 40 [13a 1 2 800] ------- [2:0 0:0 30 1] [4 0] 1 0
s 0.211443625 _1_ MAC  --- 0 ACK 38 [0 2 0 0] 
r 0.211458625 _1_ RTR  --- 9 ack 40 [13a 1 2 800] ------- [2:0 0:0 30 1] [4 0] 1 0
f 0.211458625 _1_ RTR  --- 9 ack 40 [13a 1 2 800] ------- [2:0 0:0 29 0] [4 0] 1 0
r 0.211748096 _2_ MAC  --- 0 ACK 38 [0 2 0 0] 
s 0.212277625 _1_ MAC  --- 0 RTS 44 [58e 0 1 0] 
r 0.212630089 _0_ MAC  --- 0 RTS 44 [58e 0 1 0] 
s 0.212640089 _0_ MAC  --- 0 CTS 38 [454 1 0 0] 
r 0.212944553 _1_ MAC  --- 0 CTS 38 [454 1 0 0] 
s 0.212954553 _1_ MAC  --- 5 ack 98 [13a 0 1 800] ------- [2:0 0:0 29 0] [2 0] 1 0
r 0.213739017 _0_ MAC  --- 5 ack 40 [13a 0 1 800] ------- [2:0 0:0 29 0] [2 0] 2 0
s 0.213749017 _0_ MAC  --- 0 ACK 38 [0 1 0 0] 
r 0.213764017 _0_ AGT  --- 5 ack 40 [13a 0 1 800] ------- [2:0 0:0 29 0] [2 0] 2 0
s 0.213764017 _0_ AGT  --- 10 tcp 1040 [0 0 0 0] ------- [0:0 2:0 32 0] [5 0] 0 0
r 0.213764017 _0_ RTR  --- 10 tcp 1040 [0 0 0 0] ------- [0:0 2:0 32 0] [5 0] 0 0
s 0.213764017 _0_ AGT  --- 11 tcp 1040 [0 0 0 0] ------- [0:0 2:0 32 0] [6 0] 0 0
r 0.213764017 _0_ RTR  --- 11 tcp 1040 [0 0 0 0] ------- [0:0 2:0 32 0] [6 0] 0 0
s 0.213764017 _0_ RTR  --- 10 tcp 1040 [0 0 0 0] ------- [0:0 2:0 30 1] [5 0] 0 0
s 0.213764017 _0_ RTR  --- 11 tcp 1040 [0 0 0 0] ------- [0:0 2:0 30 1] [6 0] 0 0
r 0.214053480 _1_ MAC  --- 0 ACK 38 [0 1 0 0] 
s 0.214303017 _0_ MAC  --- 0 RTS 44 [24ce 1 0 0] 
r 0.214655480 _1_ MAC  --- 0 RTS 44 [24ce 1 0 0] 
s 0.214665480 _1_ MAC  --- 0 CTS 38 [2394 0 0 0] 
r 0.214969944 _0_ MAC  --- 0 CTS 38 [2394 0 0 0] 
s 0.214979944 _0_ MAC  --- 10 tcp 1098 [13a 1 0 800] ------- [0:0 2:0 30 1] [5 0] 0 0
r 0.223764408 _1_ MAC  --- 10 tcp 1040 [13a 1 0 800] ------- [0:0 2:0 30 1] [5 0] 1 0
s 0.223774408 _1_ MAC  --- 0 ACK 38 [0 0 0 0] 
r 0.223789408 _1_ RTR  --- 10 tcp 1040 [13a 1 0 800] ------- [0:0 2:0 30 1] [5 0] 1 0
f 0.223789408 _1_ RTR  --- 10 tcp 1040 [13a 1 0 800] ------- [0:0 2:0 29 2] [5 0] 1 0
r 0.224078871 _0_ MAC  --- 0 ACK 38 [0 0 0 0] 
s 0.224188871 _0_ MAC  --- 0 RTS 44 [24ce 1 0 0] 
r 0.224541334 _1_ MAC  --- 0 RTS 44 [24ce 1 0 0] 
s 0.224551334 _1_ MAC  --- 0 CTS 38 [2394 0 0 0] 
r 0.224855797 _0_ MAC  --- 0 CTS 38 [2394 0 0 0] 
s 0.224865797 _0_ MAC  --- 11 tcp 1098 [13a 1 0 800] ------- [0:0 2:0 30 1] [6 0] 0 0
r 0.233650260 _1_ MAC  --- 11 tcp 1040 [13a 1 0 800] ------- [0:0 2:0 30 1] [6 0] 1 0
s 0.233660260 _1_ MAC  --- 0 ACK 38 [0 0 0 0] 
r 0.233675260 _1_ RTR  --- 11 tcp 1040 [13a 1 0 800] ------- [0:0 2:0 30 1] [6 0] 1 0
f 0.233675260 _1_ RTR  --- 11 tcp 1040 [13a 1 0 800] ------- [0:0 2:0 29 2] [6 0] 1 0
r 0.233964723 _0_ MAC  --- 0 ACK 38 [0 0 0 0] 
s 0.234354260 _1_ MAC  --- 0 RTS 44 [58e 0 1 0] 
r 0.234706723 _0_ MAC  --- 0 RTS 44 [58e 0 1 0] 
s 0.234716723 _0_ MAC  --- 0 CTS 38 [454 1 0 0] 
r 0.235021185 _1_ MAC  --- 0 CTS 38 [454 1 0 0] 
s 0.235031185 _1_ MAC  --- 8 ack 98 [13a 0 1 800] ------- [2:0 0:0 29 0] [3 0] 1 0
r 0.235815648 _0_ MAC  --- 8 ack 40 [13a 0 1 800] ------- [2:0 0:0 29 0] [3 0] 2 0
s 0.235825648 _0_ MAC  --- 0 ACK 38 [0 1 0 0] 
r 0.235840648 _0_ AGT  --- 8 ack 40 [13a 0 1 800] ------- [2:0 0:0 29 0] [3 0] 2 0
s 0.235840648 _0_ AGT  --- 12 tcp 1040 [0 0 0 0] ------- [0:0 2:0 32 0] [7 0] 0 0
r 0.235840648 _0_ RTR  --- 12 tcp 1040 [0 0 0 0] ------- [0:0 2:0 32 0] [7 0] 0 0
s 0.235840648 _0_ AGT  --- 13 tcp 1040 [0 0 0 0] ------- [0:0 2:0 32 0] [8 0] 0 0
r 0.235840648 _0_ RTR  --- 13 tcp 1040 [0 0 0 0] ------- [0:0 2:0 32 0] [8 0] 0 0
s 0.235840648 _0_ RTR  --- 12 tcp 1040 [0 0 0 0] ------- [0:0 2:0 30 1] [7 0] 0 0
s 0.235840648 _0_ RTR  --- 13 tcp 1040 [0 0 0 0] ------- [0:0 2:0 30 1] [8 0] 0 0
r 0.236130110 _1_ MAC  --- 0 ACK 38 [0 1 0 0] 
s 0.236519648 _0_ MAC  --- 0 RTS 44 [24ce 1 0 0] 
r 0.236872110 _1_ MAC  --- 0 RTS 44 [24ce 1 0 0] 
s 0.236882110 _1_ MAC  --- 0 CTS 38 [2394 0 0 0] 
r 0.237186572 _0_ MAC  --- 0 CTS 38 [2394 0 0 0] 
s 0.237196572 _0_ MAC  --- 12 tcp 1098 [13a 1 0 800] ------- [0:0 2:0 30 1] [7 0] 0 0
r 0.245981034 _1_ MAC  --- 12 tcp 1040 [13a 1 0 800] ------- [0:0 2:0 30 1] [7 0] 1 0
s 0.245991034 _1_ MAC  --- 0 ACK 38 [0 0 0 0] 
r 0.246006034 _1_ RTR  --- 12 tcp 1040 [13a 1 0 800] ------- [0:0 2:0 30 1] [7 0] 1 0
f 0.246006034 _1_ RTR  --- 12 tcp 1040 [13a 1 0 800] ------- [0:0 2:0 29 2] [7 0] 1 0
r 0.246295496 _0_ MAC  --- 0 ACK 38 [0 0 0 0] 
s 0.246525034 _1_ MAC  --- 0 RTS 44 [58e 0 1 0] 
r 0.246877496 _0_ MAC  --- 0 RTS 44 [58e 0 1 0] 
s 0.246887496 _0_ MAC  --- 0 CTS 38 [454 1 0 0] 
r 0.247191958 _1_ MAC  --- 0 CTS 38 [454 1 0 0] 
s 0.247201958 _1_ MAC  --- 9 ack 98 [13a 0 1 800] ------- [2:0 0:0 29 0] [4 0] 1 0
r 0.247986419 _0_ MAC  --- 9 ack 40 [13a 0 1 800] ------- [2:0 0:0 29 0] [4 0] 2 0
s 0.247996419 _0_ MAC  --- 0 ACK 38 [0 1 0 0] 
r 0.248011419 _0_ AGT  --- 9 ack 40 [13a 0 1 800] ------- [2:0 0:0 29 0] [4 0] 2 0
s 0.248011419 _0_ AGT  --- 14 tcp 1040 [0 0 0 0] ------- [0:0 2:0 32 0] [9 0] 0 0
r 0.248011419 _0_ RTR  --- 14 tcp 1040 [0 0 0 0] ------- [0:0 2:0 32 0] [9 0] 0 0
s 0.248011419 _0_ AGT  --- 15 tcp 1040 [0 0 0 0] ------- [0:0 2:0 32 0] [10 0] 0 0
r 0.248011419 _0_ RTR  --- 15 tcp 1040 [0 0 0 0] ------- [0:0 2:0 32 0] [10 0] 0 0
s 0.248011419 _0_ RTR  --- 14 tcp 1040 [0 0 0 0] ------- [0:0 2:0 30 1] [9 0] 0 0
s 0.248011419 _0_ RTR  --- 15 tcp 1040 [0 0 0 0] ------- [0:0 2:0 30 1] [10 0] 0 0
r 0.248300881 _1_ MAC  --- 0 ACK 38 [0 1 0 0] 
s 0.248470419 _0_ MAC  --- 0 RTS 44 [24ce 1 0 0] 
r 0.248822881 _1_ MAC  --- 0 RTS 44 [24ce 1 0 0] 
s 0.248832881 _1_ MAC  --- 0 CTS 38 [2394 0 0 0] 
r 0.249137342 _0_ MAC  --- 0 CTS 38 [2394 0 0 0] 
s 0.249147342 _0_ MAC  --- 13 tcp 1098 [13a 1 0 800] ------- [0:0 2:0 30 1] [8 0] 0 0
r 0.257931804 _1_ MAC  --- 13 tcp 1040 [13a 1 0 800] ------- [0:0 2:0 30 1] [8 0] 1 0
s 0.257941804 _1_ MAC  --- 0 ACK 38 [0 0 0 0] 
r 0.257956804 _1_ RTR  --- 13 tcp 1040 [13a 1 0 800] ------- [0:0 2:0 30 1] [8 0] 1 0
f 0.257956804 _1_ RTR  --- 13 tcp 1040 [13a 1 0 800] ------- [0:0 2:0 29 2] [8 0] 1 0
r 0.258246265 _0_ MAC  --- 0 ACK 38 [0 0 0 0] 
s 0.258375804 _1_ MAC  --- 0 RTS 44 [24ce 2 1 0] 
r 0.258728275 _2_ MAC  --- 0 RTS 44 [24ce 2 1 0] 
s 0.258738275 _2_ MAC  --- 0 CTS 38 [2394 1 0 0] 
r 0.259042747 _1_ MAC  --- 0 CTS 38 [2394 1 0 0] 
s 0.259052747 _1_ MAC  --- 10 tcp 1098 [13a 2 1 800] ------- [0:0 2:0 29 2] [5 0] 1 0
r 0.267837218 _2_ MAC  --- 10 tcp 1040 [13a 2 1 800] ------- [0:0 2:0 29 2] [5 0] 2 0
s 0.267847218 _2_ MAC  --- 0 ACK 38 [0 1 0 0] 
r 0.267862218 _2_ AGT  --- 10 tcp 1040 [13a 2 1 800] ------- [0:0 2:0 29 2] [5 0] 2 0
s 0.267862218 _2_ AGT  --- 16 ack 40 [0 0 0 0] ------- [2:0 0:0 32 0] [5 0] 0 0
r 0.267862218 _2_ RTR  --- 16 ack 40 [0 0 0 0] ------- [2:0 0:0 32 0] [5 0] 0 0
s 0.267862218 _2_ RTR  --- 16 ack 40 [0 0 0 0] ------- [2:0 0:0 30 1] [5 0] 0 0
r 0.268151689 _1_ MAC  --- 0 ACK 38 [0 1 0 0] 
s 0.268201689 _1_ MAC  --- 0 RTS 44 [24ce 2 1 0] 
r 0.268554161 _2_ MAC  --- 0 RTS 44 [24ce 2 1 0] 
s 0.268564161 _2_ MAC  --- 0 CTS 38 [2394 1 0 0] 
r 0.268868632 _1_ MAC  --- 0 CTS 38 [2394 1 0 0] 
s 0.268878632 _1_ MAC  --- 11 tcp 1098 [13a 2 1 800] ------- [0:0 2:0 29 2] [6 0] 1 0
r 0.277663104 _2_ MAC  --- 11 tcp 1040 [13a 2 1 800] ------- [0:0 2:0 29 2] [6 0] 2 0
s 0.277673104 _2_ MAC  --- 0 ACK 38 [0 1 0 0] 
r 0.277688104 _2_ AGT  --- 11 tcp 1040 [13a 2 1 800] ------- [0:0 2:0 29 2] [6 0] 2 0
s 0.277688104 _2_ AGT  --- 17 ack 40 [0 0 0 0] ------- [2:0 0:0 32 0] [6 0] 0 0
r 0.277688104 _2_ RTR  --- 17 ack 40 [0 0 0 0] ------- [2:0 0:0 32 0] [6 0] 0 0
s 0.277688104 _2_ RTR  --- 17 ack 40 [0 0 0 0] ------- [2:0 0:0 30 1] [6 0] 0 0
r 0.277977575 _1_ MAC  --- 0 ACK 38 [0 1 0 0] 
s 0.278247575 _1_ MAC  --- 0 RTS 44 [24ce 2 1 0] 
r 0.278600046 _2_ MAC  --- 0 RTS 44 [24ce 2 1 0] 
s 0.278610046 _2_ MAC  --- 0 CTS 38 [2394 1 0 0] 
r 0.278914518 _1_ MAC  --- 0 CTS 38 [2394 1 0 0] 
s 0.278924518 _1_ MAC  --- 12 tcp 1098 [13a 2 1 800] ------- [0:0 2:0 29 2] [7 0] 1 0
r 0.287708989 _2_ MAC  --- 12 tcp 1040 [13a 2 1 800] ------- [0:0 2:0 29 2] [7 0] 2 0
s 0.287718989 _2_ MAC  --- 0 ACK 38 [0 1 0 0] 
r 0.287733989 _2_ AGT  --- 12 tcp 1040 [13a 2 1 800] ------- [0:0 2:0 29 2] [7 0] 2 0
s 0.287733989 _2_ AGT  --- 18 ack 40 [0 0 0 0] ------- [2:0 0:0 32 0] [7 0] 0 0
r 0.287733989 _2_ RTR  --- 18 ack 40 [0 0 0 0] ------- [2:0 0:0 32 0] [7 0] 0 0
s 0.287733989 _2_ RTR  --- 18 ack 40 [0 0 0 0] ------- [2:0 0:0 30 1] [7 0] 0 0
r 0.288023461 _1_ MAC  --- 0 ACK 38 [0 1 0 0] 
s 0.288332989 _2_ MAC  --- 0 RTS 44 [58e 1 2 0] 
r 0.288685461 _1_ MAC  --- 0 RTS 44 [58e 1 2 0] 
s 0.288695461 _1_ MAC  --- 0 CTS 38 [454 2 0 0] 
r 0.288999932 _2_ MAC  --- 0 CTS 38 [454 2 0 0] 
s 0.289009932 _2_ MAC  --- 16 ack 98 [13a 1 2 800] ------- [2:0 0:0 30 1] [5 0] 0 0
r 0.289794403 _1_ MAC  --- 16 ack 40 [13a 1 2 800] ------- [2:0 0:0 30 1] [5 0] 1 0
s 0.289804403 _1_ MAC  --- 0 ACK 38 [0 2 0 0] 
r 0.289819403 _1_ RTR  --- 16 ack 40 [13a 1 2 800] ------- [2:0 0:0 30 1] [5 0] 1 0
f 0.289819403 _1_ RTR  --- 16 ack 40 [13a 1 2 800] ------- [2:0 0:0 29 0] [5 0] 1 0
r 0.290108875 _2_ MAC  --- 0 ACK 38 [0 2 0 0] 
s 0.290238403 _1_ MAC  --- 0 RTS 44 [24ce 2 1 0] 
r 0.290590875 _2_ MAC  --- 0 RTS 44 [24ce 2 1 0] 
s 0.290600875 _2_ MAC  --- 0 CTS 38 [2394 1 0 0] 
r 0.290905346 _1_ MAC  --- 0 CTS 38 [2394 1 0 0] 
s 0.290915346 _1_ MAC  --- 13 tcp 1098 [13a 2 1 800] ------- [0:0 2:0 29 2] [8 0] 1 0
r 0.299699818 _2_ MAC  --- 13 tcp 1040 [13a 2 1 800] ------- [0:0 2:0 29 2] [8 0] 2 0
s 0.299709818 _2_ MAC  --- 0 ACK 38 [0 1 0 0] 
r 0.299724818 _2_ AGT  --- 13 tcp 1040 [13a 2 1 800] ------- [0:0 2:0 29 2] [8 0] 2 0
s 0.299724818 _2_ AGT  --- 19 ack 40 [0 0 0 0] ------- [2:0 0:0 32 0] [8 0] 0 0
r 0.299724818 _2_ RTR  --- 19 ack 40 [0 0 0 0] ------- [2:0 0:0 32 0] [8 0] 0 0
s 0.299724818 _2_ RTR  --- 19 ack 40 [0 0 0 0] ------- [2:0 0:0 30 1] [8 0] 0 0
r 0.300014289 _1_ MAC  --- 0 ACK 38 [0 1 0 0] 
s 0.300143818 _2_ MAC  --- 0 RTS 44 [58e 1 2 0] 
r 0.300496289 _1_ MAC  --- 0 RTS 44 [58e 1 2 0] 
s 0.300506289 _1_ MAC  --- 0 CTS 38 [454 2 0 0] 
r 0.300810760 _2_ MAC  --- 0 CTS 38 [454 2 0 0] 
s 0.300820760 _2_ MAC  --- 17 ack 98 [13a 1 2 800] ------- [2:0 0:0 30 1] [6 0] 0 0
r 0.301605232 _1_ MAC  --- 17 ack 40 [13a 1 2 800] ------- [2:0 0:0 30 1] [6 0] 1 0
s 0.301615232 _1_ MAC  --- 0 ACK 38 [0 2 0 0] 
r 0.301630232 _1_ RTR  --- 17 ack 40 [13a 1 2 800] ------- [2:0 0:0 30 1] [6 0] 1 0
f 0.301630232 _1_ RTR  --- 17 ack 40 [13a 1 2 800] ------- [2:0 0:0 29 0] [6 0] 1 0
r 0.301919703 _2_ MAC  --- 0 ACK 38 [0 2 0 0] 
s 0.302049703 _2_ MAC  --- 0 RTS 44 [58e 1 2 0] 
r 0.302402175 _1_ MAC  --- 0 RTS 44 [58e 1 2 0] 
s 0.302412175 _1_ MAC  --- 0 CTS 38 [454 2 0 0] 
r 0.302716646 _2_ MAC  --- 0 CTS 38 [454 2 0 0] 
s 0.302726646 _2_ MAC  --- 18 ack 98 [13a 1 2 800] ------- [2:0 0:0 30 1] [7 0] 0 0
r 0.303511117 _1_ MAC  --- 18 ack 40 [13a 1 2 800] ------- [2:0 0:0 30 1] [7 0] 1 0
s 0.303521117 _1_ MAC  --- 0 ACK 38 [0 2 0 0] 
r 0.303536117 _1_ RTR  --- 18 ack 40 [13a 1 2 800] ------- [2:0 0:0 30 1] [7 0] 1 0
f 0.303536117 _1_ RTR  --- 18 ack 40 [13a 1 2 800] ------- [2:0 0:0 29 0] [7 0] 1 0
r 0.303825589 _2_ MAC  --- 0 ACK 38 [0 2 0 0] 
s 0.303935117 _1_ MAC  --- 0 RTS 44 [58e 0 1 0] 
r 0.304287575 _0_ MAC  --- 0 RTS 44 [58e 0 1 0] 
s 0.304297575 _0_ MAC  --- 0 CTS 38 [454 1 0 0] 
r 0.304602033 _1_ MAC  --- 0 CTS 38 [454 1 0 0] 
s 0.304612033 _1_ MAC  --- 16 ack 98 [13a 0 1 800] ------- [2:0 0:0 29 0] [5 0] 1 0
r 0.305396491 _0_ MAC  --- 16 ack 40 [13a 0 1 800] ------- [2:0 0:0 29 0] [5 0] 2 0
s 0.305406491 _0_ MAC  --- 0 ACK 38 [0 1 0 0] 
r 0.305421491 _0_ AGT  --- 16 ack 40 [13a 0 1 800] ------- [2:0 0:0 29 0] [5 0] 2 0
s 0.305421491 _0_ AGT  --- 20 tcp 1040 [0 0 0 0] ------- [0:0 2:0 32 0] [11 0] 0 0
r 0.305421491 _0_ RTR  --- 20 tcp 1040 [0 0 0 0] ------- [0:0 2:0 32 0] [11 0] 0 0
s 0.305421491 _0_ AGT  --- 21 tcp 1040 [0 0 0 0] ------- [0:0 2:0 32 0] [12 0] 0 0
r 0.305421491 _0_ RTR  --- 21 tcp 1040 [0 0 0 0] ------- [0:0 2:0 32 0] [12 0] 0 0
s 0.305421491 _0_ RTR  --- 20 tcp 1040 [0 0 0 0] ------- [0:0 2:0 30 1] [11 0] 0 0
s 0.305421491 _0_ RTR  --- 21 tcp 1040 [0 0 0 0] ------- [0:0 2:0 30 1] [12 0] 0 0
r 0.305710948 _1_ MAC  --- 0 ACK 38 [0 1 0 0] 
s 0.305760948 _1_ MAC  --- 0 RTS 44 [58e 0 1 0] 
r 0.306113406 _0_ MAC  --- 0 RTS 44 [58e 0 1 0] 
s 0.306123406 _0_ MAC  --- 0 CTS 38 [454 1 0 0] 
r 0.306427864 _1_ MAC  --- 0 CTS 38 [454 1 0 0] 
s 0.306437864 _1_ MAC  --- 17 ack 98 [13a 0 1 800] ------- [2:0 0:0 29 0] [6 0] 1 0
r 0.307222321 _0_ MAC  --- 17 ack 40 [13a 0 1 800] ------- [2:0 0:0 29 0] [6 0] 2 0
s 0.307232321 _0_ MAC  --- 0 ACK 38 [0 1 0 0] 
r 0.307247321 _0_ AGT  --- 17 ack 40 [13a 0 1 800] ------- [2:0 0:0 29 0] [6 0] 2 0
s 0.307247321 _0_ AGT  --- 22 tcp 1040 [0 0 0 0] ------- [0:0 2:0 32 0] [13 0] 0 0
r 0.307247321 _0_ RTR  --- 22 tcp 1040 [0 0 0 0] ------- [0:0 2:0 32 0] [13 0] 0 0
s 0.307247321 _0_ AGT  --- 23 tcp 1040 [0 0 0 0] ------- [0:0 2:0 32 0] [14 0] 0 0
r 0.307247321 _0_ RTR  --- 23 tcp 1040 [0 0 0 0] ------- [0:0 2:0 32 0] [14 0] 0 0
s 0.307247321 _0_ RTR  --- 22 tcp 1040 [0 0 0 0] ------- [0:0 2:0 30 1] [13 0] 0 0
s 0.307247321 _0_ RTR  --- 23 tcp 1040 [0 0 0 0] ------- [0:0 2:0 30 1] [14 0] 0 0
r 0.307536779 _1_ MAC  --- 0 ACK 38 [0 1 0 0] 
s 0.307766321 _0_ MAC  --- 0 RTS 44 [24ce 1 0 0] 
r 0.308118779 _1_ MAC  --- 0 RTS 44 [24ce 1 0 0] 
s 0.308128779 _1_ MAC  --- 0 CTS 38 [2394 0 0 0] 
r 0.308433237 _0_ MAC  --- 0 CTS 38 [2394 0 0 0] 
s 0.308443237 _0_ MAC  --- 14 tcp 1098 [13a 1 0 800] ------- [0:0 2:0 30 1] [9 0] 0 0
r 0.317227694 _1_ MAC  --- 14 tcp 1040 [13a 1 0 800] ------- [0:0 2:0 30 1] [9 0] 1 0
s 0.317237694 _1_ MAC  --- 0 ACK 38 [0 0 0 0] 
r 0.317252694 _1_ RTR  --- 14 tcp 1040 [13a 1 0 800] ------- [0:0 2:0 30 1] [9 0] 1 0
f 0.317252694 _1_ RTR  --- 14 tcp 1040 [13a 1 0 800] ------- [0:0 2:0 29 2] [9 0] 1 0
r 0.317542151 _0_ MAC  --- 0 ACK 38 [0 0 0 0] 